 vasp.5.3.5 31Mar14 (build Aug 22 2014 17:09:12) complex                         
 executed on              unknown date 2016.07.22  18:32:33
 running on   96 total cores
 distrk:  each k-point on   24 cores,    4 groups
 distr:  one band on NCORES_PER_BAND=  24 cores,    1 groups


--------------------------------------------------------------------------------------------------------


 INCAR:
 POTCAR:   PAW_PBE Fe_pv 06Sep2000                
 POTCAR:   PAW_PBE O 08Apr2002                    

 ----------------------------------------------------------------------------- 
|                                                                             |
|           W    W    AA    RRRRR   N    N  II  N    N   GGGG   !!!           |
|           W    W   A  A   R    R  NN   N  II  NN   N  G    G  !!!           |
|           W    W  A    A  R    R  N N  N  II  N N  N  G       !!!           |
|           W WW W  AAAAAA  RRRRR   N  N N  II  N  N N  G  GGG   !            |
|           WW  WW  A    A  R   R   N   NN  II  N   NN  G    G                |
|           W    W  A    A  R    R  N    N  II  N    N   GGGG   !!!           |
|                                                                             |
|      For optimal performance we recommend to set                            |
|        NCORE= 4 - approx SQRT( number of cores)                             |
|      NCORE specifies how many cores store one orbital (NPAR=cpu/NCORE).     |
|      This setting can  greatly improve the performance of VASP for DFT.     |
|      The default, NPAR=number of cores might be grossly inefficient         |
|      on modern multi-core architectures or massively parallel machines.     |
|      Do your own testing !!!!                                               |
|      Unfortunately you need to use the default for GW and RPA calculations. |
|      (for HF NCORE is supported but not extensively tested yet)             |
|                                                                             |
 ----------------------------------------------------------------------------- 


 ----------------------------------------------------------------------------- 
|                                                                             |
|           W    W    AA    RRRRR   N    N  II  N    N   GGGG   !!!           |
|           W    W   A  A   R    R  NN   N  II  NN   N  G    G  !!!           |
|           W    W  A    A  R    R  N N  N  II  N N  N  G       !!!           |
|           W WW W  AAAAAA  RRRRR   N  N N  II  N  N N  G  GGG   !            |
|           WW  WW  A    A  R   R   N   NN  II  N   NN  G    G                |
|           W    W  A    A  R    R  N    N  II  N    N   GGGG   !!!           |
|                                                                             |
|      You have enabled k-point parallelism (KPAR>1).                         |
|      This developmental code was originally  written by Paul Kent at ORNL,  |
|      and carefully double checked in Vienna.                                |
|      GW as well as linear response parallelism added by Martijn Marsman     |
|      and Georg Kresse.                                                      |
|      Carefully verify results versus KPAR=1.                                |
|      Report problems to Paul Kent and Vienna.                               |
|                                                                             |
 ----------------------------------------------------------------------------- 

 POTCAR:   PAW_PBE Fe_pv 06Sep2000                
   VRHFIN =Fe:  3pd7s1                                                          
   LEXCH  = PE                                                                  
   EATOM  =  2456.8974 eV,  180.5769 Ry                                         
                                                                                
   TITEL  = PAW_PBE Fe_pv 06Sep2000                                             
   LULTRA =        F    use ultrasoft PP ?                                      
   IUNSCR =        1    unscreen: 0-lin 1-nonlin 2-no                           
   RPACOR =    1.750    partial core radius                                     
   POMASS =   55.847; ZVAL   =   14.000    mass and valenz                      
   RCORE  =    2.200    outmost cutoff radius                                   
   RWIGS  =    2.200; RWIGS  =    1.164    wigner-seitz radius (au A)           
   ENMAX  =  293.238; ENMIN  =  219.929 eV                                      
   RCLOC  =    1.701    cutoff for local pot                                    
   LCOR   =        T    correct aug charges                                     
   LPAW   =        T    paw PP                                                  
   EAUG   =  578.342                                                            
   DEXC   =    -.002                                                            
   RMAX   =    2.693    core radius for proj-oper                               
   RAUG   =    1.300    factor for augmentation sphere                          
   RDEP   =    2.296    radius for radial grids                                 
   QCUT   =   -4.642; QGAM   =    9.285    optimization parameters              
                                                                                
   Description                                                                  
     l     E      TYP  RCUT    TYP  RCUT                                        
     1   .000     23  2.000                                                     
     1  -.400     23  2.000                                                     
     2   .000     23  2.200                                                     
     2   .000     23  2.200                                                     
     0   .000     23  2.000                                                     
     0  2.000     23  2.000                                                     
     3   .000      7   .000                                                     
  local pseudopotential read in
  partial core-charges read in
  atomic valenz-charges read in
  non local Contribution for L= 1  read in
    real space projection operators read in
  non local Contribution for L= 1  read in
    real space projection operators read in
  non local Contribution for L= 2  read in
    real space projection operators read in
  non local Contribution for L= 2  read in
    real space projection operators read in
  non local Contribution for L= 0  read in
    real space projection operators read in
  non local Contribution for L= 0  read in
    real space projection operators read in
    PAW grid and wavefunctions read in
 
   number of l-projection  operators is LMAX  = 6
   number of lm-projection operators is LMMAX = 18
 
 POTCAR:   PAW_PBE O 08Apr2002                    
   VRHFIN =O: s2p4                                                              
   LEXCH  = PE                                                                  
   EATOM  =   432.3788 eV,   31.7789 Ry                                         
                                                                                
   TITEL  = PAW_PBE O 08Apr2002                                                 
   LULTRA =        F    use ultrasoft PP ?                                      
   IUNSCR =        0    unscreen: 0-lin 1-nonlin 2-no                           
   RPACOR =     .000    partial core radius                                     
   POMASS =   16.000; ZVAL   =    6.000    mass and valenz                      
   RCORE  =    1.520    outmost cutoff radius                                   
   RWIGS  =    1.550; RWIGS  =     .820    wigner-seitz radius (au A)           
   ENMAX  =  400.000; ENMIN  =  300.000 eV                                      
   ICORE  =        2    local potential                                         
   LCOR   =        T    correct aug charges                                     
   LPAW   =        T    paw PP                                                  
   EAUG   =  605.392                                                            
   DEXC   =     .000                                                            
   RMAX   =    2.264    core radius for proj-oper                               
   RAUG   =    1.300    factor for augmentation sphere                          
   RDEP   =    1.550    radius for radial grids                                 
   QCUT   =   -5.520; QGAM   =   11.041    optimization parameters              
                                                                                
   Description                                                                  
     l     E      TYP  RCUT    TYP  RCUT                                        
     0   .000     23  1.200                                                     
     0  -.700     23  1.200                                                     
     1   .000     23  1.520                                                     
     1   .600     23  1.520                                                     
     2   .000      7  1.500                                                     
  local pseudopotential read in
  atomic valenz-charges read in
  non local Contribution for L= 0  read in
    real space projection operators read in
  non local Contribution for L= 0  read in
    real space projection operators read in
  non local Contribution for L= 1  read in
    real space projection operators read in
  non local Contribution for L= 1  read in
    real space projection operators read in
    PAW grid and wavefunctions read in
 
   number of l-projection  operators is LMAX  = 4
   number of lm-projection operators is LMMAX = 8
 
 PAW_PBE Fe_pv 06Sep2000                :
 energy of atom  1       EATOM=-2456.8974
 kinetic energy error for atom=    0.0060 (will be added to EATOM!!)
 PAW_PBE O 08Apr2002                    :
 energy of atom  2       EATOM= -432.3788
 kinetic energy error for atom=    0.0190 (will be added to EATOM!!)
 
 
 POSCAR: Fe  O                                   
  positions in direct lattice
  No initial velocities read in
 exchange correlation table for  LEXCH =        8
   RHO(1)=    0.500       N(1)  =     2000
   RHO(2)=  100.500       N(2)  =     4000
 


--------------------------------------------------------------------------------------------------------


 ion  position               nearest neighbor table
   1  0.000  0.000  0.000-   6 2.17   6 2.17   8 2.17   8 2.17   7 2.25   5 2.25
   2  0.500  0.500  0.500-   7 2.17   7 2.17   5 2.17   5 2.17   6 2.25   8 2.25
   3  0.500  1.000  0.000-   6 2.17   6 2.17   8 2.17   8 2.17   7 2.25   5 2.25
   4  0.000  0.500  0.500-   7 2.17   7 2.17   5 2.17   5 2.17   6 2.25   8 2.25
   5  0.250  0.500  0.000-   4 2.17   4 2.17   2 2.17   2 2.17   1 2.25   3 2.25
   6  0.750  1.000  0.500-   1 2.17   1 2.17   3 2.17   3 2.17   4 2.25   2 2.25
   7  0.750  0.500  0.000-   4 2.17   4 2.17   2 2.17   2 2.17   1 2.25   3 2.25
   8  0.250  0.000  0.500-   1 2.17   1 2.17   3 2.17   3 2.17   4 2.25   2 2.25
 
  LATTYP: Found a simple monoclinic cell.
 ALAT       =     6.2220882896
 B/A-ratio  =     0.4858889368
 C/A-ratio  =     1.6624186431
 COS(beta)  =    -0.9007875573
  
  Lattice vectors:
  
 A1 = (  -4.3996739249,  -4.3996739249,  -0.0110178645)
 A2 = (  -2.1377562371,   2.1377562371,   0.0000000000)
 A3 = (   6.5940745881,   6.5940745881,  -4.4753561294)


Analysis of symmetry for initial positions (statically):
=====================================================================
 Subroutine PRICEL returns:
 Original cell was already a primitive cell.
 

 Routine SETGRP: Setting up the symmetry group for a 
 simple monoclinic supercell.


 Subroutine GETGRP returns: Found  2 space group operations
 (whereof  2 operations were pure point group operations)
 out of a pool of  4 trial point group operations.


The static configuration has the point symmetry C_1h.


Analysis of symmetry for dynamics (positions and initial velocities):
=====================================================================
 Subroutine PRICEL returns:
 Original cell was already a primitive cell.
 

 Routine SETGRP: Setting up the symmetry group for a 
 simple monoclinic supercell.


 Subroutine GETGRP returns: Found  2 space group operations
 (whereof  2 operations were pure point group operations)
 out of a pool of  4 trial point group operations.


The dynamic configuration has the point symmetry C_1h.


Analysis of magnetic symmetry:
=====================================================================
 Subroutine PRICEL returns:
 Original cell was already a primitive cell.
 

 Subroutine MAGSYM returns: Found  2 space group operations
 (whereof  2 operations were pure point group operations)
 out of a pool of  2 trial space group operations
 (whereof  2 operations were pure point group operations)
 and found also     1 'primitive' translations


The magnetic configuration has the point symmetry C_1h.
 
 
 KPOINTS: KPOINTS created by Atomic Simulation Env

Automatic generation of k-mesh.
Space group operators:
 irot       det(A)        alpha          n_x          n_y          n_z        tau_x        tau_y        tau_z
    1     1.000000     0.000000     1.000000     0.000000     0.000000     0.000000     0.000000     0.000000
    2    -1.000000   180.000000     0.707107    -0.707107    -0.000000     0.000000     0.000000     0.000000
 
 Subroutine IBZKPT returns following result:
 ===========================================
 
 Found    450 irreducible k-points:
 
 Following reciprocal coordinates:
            Coordinates               Weight
  0.000000  0.000000  0.000000      1.000000
  0.111111  0.000000  0.000000      2.000000
  0.222222  0.000000  0.000000      2.000000
  0.333333  0.000000  0.000000      2.000000
  0.444444  0.000000  0.000000      2.000000
  0.000000  0.090909  0.000000      2.000000
  0.111111  0.090909  0.000000      2.000000
  0.222222  0.090909  0.000000      2.000000
  0.333333  0.090909  0.000000      2.000000
  0.444444  0.090909  0.000000      2.000000
 -0.444444  0.090909  0.000000      2.000000
 -0.333333  0.090909  0.000000      2.000000
 -0.222222  0.090909  0.000000      2.000000
 -0.111111  0.090909  0.000000      2.000000
  0.000000  0.181818  0.000000      2.000000
  0.111111  0.181818  0.000000      2.000000
  0.222222  0.181818  0.000000      2.000000
  0.333333  0.181818  0.000000      2.000000
  0.444444  0.181818  0.000000      2.000000
 -0.444444  0.181818  0.000000      2.000000
 -0.333333  0.181818  0.000000      2.000000
 -0.222222  0.181818  0.000000      2.000000
 -0.111111  0.181818  0.000000      2.000000
  0.000000  0.272727  0.000000      2.000000
  0.111111  0.272727  0.000000      2.000000
  0.222222  0.272727  0.000000      2.000000
  0.333333  0.272727  0.000000      2.000000
  0.444444  0.272727  0.000000      2.000000
 -0.444444  0.272727  0.000000      2.000000
 -0.333333  0.272727  0.000000      2.000000
 -0.222222  0.272727  0.000000      2.000000
 -0.111111  0.272727  0.000000      2.000000
  0.000000  0.363636  0.000000      2.000000
  0.111111  0.363636  0.000000      2.000000
  0.222222  0.363636  0.000000      2.000000
  0.333333  0.363636  0.000000      2.000000
  0.444444  0.363636  0.000000      2.000000
 -0.444444  0.363636  0.000000      2.000000
 -0.333333  0.363636  0.000000      2.000000
 -0.222222  0.363636  0.000000      2.000000
 -0.111111  0.363636  0.000000      2.000000
  0.000000  0.454545  0.000000      2.000000
  0.111111  0.454545  0.000000      2.000000
  0.222222  0.454545  0.000000      2.000000
  0.333333  0.454545  0.000000      2.000000
  0.444444  0.454545  0.000000      2.000000
 -0.444444  0.454545  0.000000      2.000000
 -0.333333  0.454545  0.000000      2.000000
 -0.222222  0.454545  0.000000      2.000000
 -0.111111  0.454545  0.000000      2.000000
  0.000000  0.000000  0.058824      2.000000
  0.111111  0.000000  0.058824      4.000000
  0.222222  0.000000  0.058824      4.000000
  0.333333  0.000000  0.058824      4.000000
  0.444444  0.000000  0.058824      4.000000
  0.000000  0.090909  0.058824      4.000000
  0.111111  0.090909  0.058824      4.000000
  0.222222  0.090909  0.058824      4.000000
  0.333333  0.090909  0.058824      4.000000
  0.444444  0.090909  0.058824      4.000000
 -0.444444  0.090909  0.058824      4.000000
 -0.333333  0.090909  0.058824      4.000000
 -0.222222  0.090909  0.058824      4.000000
 -0.111111  0.090909  0.058824      4.000000
  0.000000  0.181818  0.058824      4.000000
  0.111111  0.181818  0.058824      4.000000
  0.222222  0.181818  0.058824      4.000000
  0.333333  0.181818  0.058824      4.000000
  0.444444  0.181818  0.058824      4.000000
 -0.444444  0.181818  0.058824      4.000000
 -0.333333  0.181818  0.058824      4.000000
 -0.222222  0.181818  0.058824      4.000000
 -0.111111  0.181818  0.058824      4.000000
  0.000000  0.272727  0.058824      4.000000
  0.111111  0.272727  0.058824      4.000000
  0.222222  0.272727  0.058824      4.000000
  0.333333  0.272727  0.058824      4.000000
  0.444444  0.272727  0.058824      4.000000
 -0.444444  0.272727  0.058824      4.000000
 -0.333333  0.272727  0.058824      4.000000
 -0.222222  0.272727  0.058824      4.000000
 -0.111111  0.272727  0.058824      4.000000
  0.000000  0.363636  0.058824      4.000000
  0.111111  0.363636  0.058824      4.000000
  0.222222  0.363636  0.058824      4.000000
  0.333333  0.363636  0.058824      4.000000
  0.444444  0.363636  0.058824      4.000000
 -0.444444  0.363636  0.058824      4.000000
 -0.333333  0.363636  0.058824      4.000000
 -0.222222  0.363636  0.058824      4.000000
 -0.111111  0.363636  0.058824      4.000000
  0.000000  0.454545  0.058824      4.000000
  0.111111  0.454545  0.058824      4.000000
  0.222222  0.454545  0.058824      4.000000
  0.333333  0.454545  0.058824      4.000000
  0.444444  0.454545  0.058824      4.000000
 -0.444444  0.454545  0.058824      4.000000
 -0.333333  0.454545  0.058824      4.000000
 -0.222222  0.454545  0.058824      4.000000
 -0.111111  0.454545  0.058824      4.000000
  0.000000  0.000000  0.117647      2.000000
  0.111111  0.000000  0.117647      4.000000
  0.222222  0.000000  0.117647      4.000000
  0.333333  0.000000  0.117647      4.000000
  0.444444  0.000000  0.117647      4.000000
  0.000000  0.090909  0.117647      4.000000
  0.111111  0.090909  0.117647      4.000000
  0.222222  0.090909  0.117647      4.000000
  0.333333  0.090909  0.117647      4.000000
  0.444444  0.090909  0.117647      4.000000
 -0.444444  0.090909  0.117647      4.000000
 -0.333333  0.090909  0.117647      4.000000
 -0.222222  0.090909  0.117647      4.000000
 -0.111111  0.090909  0.117647      4.000000
  0.000000  0.181818  0.117647      4.000000
  0.111111  0.181818  0.117647      4.000000
  0.222222  0.181818  0.117647      4.000000
  0.333333  0.181818  0.117647      4.000000
  0.444444  0.181818  0.117647      4.000000
 -0.444444  0.181818  0.117647      4.000000
 -0.333333  0.181818  0.117647      4.000000
 -0.222222  0.181818  0.117647      4.000000
 -0.111111  0.181818  0.117647      4.000000
  0.000000  0.272727  0.117647      4.000000
  0.111111  0.272727  0.117647      4.000000
  0.222222  0.272727  0.117647      4.000000
  0.333333  0.272727  0.117647      4.000000
  0.444444  0.272727  0.117647      4.000000
 -0.444444  0.272727  0.117647      4.000000
 -0.333333  0.272727  0.117647      4.000000
 -0.222222  0.272727  0.117647      4.000000
 -0.111111  0.272727  0.117647      4.000000
  0.000000  0.363636  0.117647      4.000000
  0.111111  0.363636  0.117647      4.000000
  0.222222  0.363636  0.117647      4.000000
  0.333333  0.363636  0.117647      4.000000
  0.444444  0.363636  0.117647      4.000000
 -0.444444  0.363636  0.117647      4.000000
 -0.333333  0.363636  0.117647      4.000000
 -0.222222  0.363636  0.117647      4.000000
 -0.111111  0.363636  0.117647      4.000000
  0.000000  0.454545  0.117647      4.000000
  0.111111  0.454545  0.117647      4.000000
  0.222222  0.454545  0.117647      4.000000
  0.333333  0.454545  0.117647      4.000000
  0.444444  0.454545  0.117647      4.000000
 -0.444444  0.454545  0.117647      4.000000
 -0.333333  0.454545  0.117647      4.000000
 -0.222222  0.454545  0.117647      4.000000
 -0.111111  0.454545  0.117647      4.000000
  0.000000  0.000000  0.176471      2.000000
  0.111111  0.000000  0.176471      4.000000
  0.222222  0.000000  0.176471      4.000000
  0.333333  0.000000  0.176471      4.000000
  0.444444  0.000000  0.176471      4.000000
  0.000000  0.090909  0.176471      4.000000
  0.111111  0.090909  0.176471      4.000000
  0.222222  0.090909  0.176471      4.000000
  0.333333  0.090909  0.176471      4.000000
  0.444444  0.090909  0.176471      4.000000
 -0.444444  0.090909  0.176471      4.000000
 -0.333333  0.090909  0.176471      4.000000
 -0.222222  0.090909  0.176471      4.000000
 -0.111111  0.090909  0.176471      4.000000
  0.000000  0.181818  0.176471      4.000000
  0.111111  0.181818  0.176471      4.000000
  0.222222  0.181818  0.176471      4.000000
  0.333333  0.181818  0.176471      4.000000
  0.444444  0.181818  0.176471      4.000000
 -0.444444  0.181818  0.176471      4.000000
 -0.333333  0.181818  0.176471      4.000000
 -0.222222  0.181818  0.176471      4.000000
 -0.111111  0.181818  0.176471      4.000000
  0.000000  0.272727  0.176471      4.000000
  0.111111  0.272727  0.176471      4.000000
  0.222222  0.272727  0.176471      4.000000
  0.333333  0.272727  0.176471      4.000000
  0.444444  0.272727  0.176471      4.000000
 -0.444444  0.272727  0.176471      4.000000
 -0.333333  0.272727  0.176471      4.000000
 -0.222222  0.272727  0.176471      4.000000
 -0.111111  0.272727  0.176471      4.000000
  0.000000  0.363636  0.176471      4.000000
  0.111111  0.363636  0.176471      4.000000
  0.222222  0.363636  0.176471      4.000000
  0.333333  0.363636  0.176471      4.000000
  0.444444  0.363636  0.176471      4.000000
 -0.444444  0.363636  0.176471      4.000000
 -0.333333  0.363636  0.176471      4.000000
 -0.222222  0.363636  0.176471      4.000000
 -0.111111  0.363636  0.176471      4.000000
  0.000000  0.454545  0.176471      4.000000
  0.111111  0.454545  0.176471      4.000000
  0.222222  0.454545  0.176471      4.000000
  0.333333  0.454545  0.176471      4.000000
  0.444444  0.454545  0.176471      4.000000
 -0.444444  0.454545  0.176471      4.000000
 -0.333333  0.454545  0.176471      4.000000
 -0.222222  0.454545  0.176471      4.000000
 -0.111111  0.454545  0.176471      4.000000
  0.000000  0.000000  0.235294      2.000000
  0.111111  0.000000  0.235294      4.000000
  0.222222  0.000000  0.235294      4.000000
  0.333333  0.000000  0.235294      4.000000
  0.444444  0.000000  0.235294      4.000000
  0.000000  0.090909  0.235294      4.000000
  0.111111  0.090909  0.235294      4.000000
  0.222222  0.090909  0.235294      4.000000
  0.333333  0.090909  0.235294      4.000000
  0.444444  0.090909  0.235294      4.000000
 -0.444444  0.090909  0.235294      4.000000
 -0.333333  0.090909  0.235294      4.000000
 -0.222222  0.090909  0.235294      4.000000
 -0.111111  0.090909  0.235294      4.000000
  0.000000  0.181818  0.235294      4.000000
  0.111111  0.181818  0.235294      4.000000
  0.222222  0.181818  0.235294      4.000000
  0.333333  0.181818  0.235294      4.000000
  0.444444  0.181818  0.235294      4.000000
 -0.444444  0.181818  0.235294      4.000000
 -0.333333  0.181818  0.235294      4.000000
 -0.222222  0.181818  0.235294      4.000000
 -0.111111  0.181818  0.235294      4.000000
  0.000000  0.272727  0.235294      4.000000
  0.111111  0.272727  0.235294      4.000000
  0.222222  0.272727  0.235294      4.000000
  0.333333  0.272727  0.235294      4.000000
  0.444444  0.272727  0.235294      4.000000
 -0.444444  0.272727  0.235294      4.000000
 -0.333333  0.272727  0.235294      4.000000
 -0.222222  0.272727  0.235294      4.000000
 -0.111111  0.272727  0.235294      4.000000
  0.000000  0.363636  0.235294      4.000000
  0.111111  0.363636  0.235294      4.000000
  0.222222  0.363636  0.235294      4.000000
  0.333333  0.363636  0.235294      4.000000
  0.444444  0.363636  0.235294      4.000000
 -0.444444  0.363636  0.235294      4.000000
 -0.333333  0.363636  0.235294      4.000000
 -0.222222  0.363636  0.235294      4.000000
 -0.111111  0.363636  0.235294      4.000000
  0.000000  0.454545  0.235294      4.000000
  0.111111  0.454545  0.235294      4.000000
  0.222222  0.454545  0.235294      4.000000
  0.333333  0.454545  0.235294      4.000000
  0.444444  0.454545  0.235294      4.000000
 -0.444444  0.454545  0.235294      4.000000
 -0.333333  0.454545  0.235294      4.000000
 -0.222222  0.454545  0.235294      4.000000
 -0.111111  0.454545  0.235294      4.000000
  0.000000  0.000000  0.294118      2.000000
  0.111111  0.000000  0.294118      4.000000
  0.222222  0.000000  0.294118      4.000000
  0.333333  0.000000  0.294118      4.000000
  0.444444  0.000000  0.294118      4.000000
  0.000000  0.090909  0.294118      4.000000
  0.111111  0.090909  0.294118      4.000000
  0.222222  0.090909  0.294118      4.000000
  0.333333  0.090909  0.294118      4.000000
  0.444444  0.090909  0.294118      4.000000
 -0.444444  0.090909  0.294118      4.000000
 -0.333333  0.090909  0.294118      4.000000
 -0.222222  0.090909  0.294118      4.000000
 -0.111111  0.090909  0.294118      4.000000
  0.000000  0.181818  0.294118      4.000000
  0.111111  0.181818  0.294118      4.000000
  0.222222  0.181818  0.294118      4.000000
  0.333333  0.181818  0.294118      4.000000
  0.444444  0.181818  0.294118      4.000000
 -0.444444  0.181818  0.294118      4.000000
 -0.333333  0.181818  0.294118      4.000000
 -0.222222  0.181818  0.294118      4.000000
 -0.111111  0.181818  0.294118      4.000000
  0.000000  0.272727  0.294118      4.000000
  0.111111  0.272727  0.294118      4.000000
  0.222222  0.272727  0.294118      4.000000
  0.333333  0.272727  0.294118      4.000000
  0.444444  0.272727  0.294118      4.000000
 -0.444444  0.272727  0.294118      4.000000
 -0.333333  0.272727  0.294118      4.000000
 -0.222222  0.272727  0.294118      4.000000
 -0.111111  0.272727  0.294118      4.000000
  0.000000  0.363636  0.294118      4.000000
  0.111111  0.363636  0.294118      4.000000
  0.222222  0.363636  0.294118      4.000000
  0.333333  0.363636  0.294118      4.000000
  0.444444  0.363636  0.294118      4.000000
 -0.444444  0.363636  0.294118      4.000000
 -0.333333  0.363636  0.294118      4.000000
 -0.222222  0.363636  0.294118      4.000000
 -0.111111  0.363636  0.294118      4.000000
  0.000000  0.454545  0.294118      4.000000
  0.111111  0.454545  0.294118      4.000000
  0.222222  0.454545  0.294118      4.000000
  0.333333  0.454545  0.294118      4.000000
  0.444444  0.454545  0.294118      4.000000
 -0.444444  0.454545  0.294118      4.000000
 -0.333333  0.454545  0.294118      4.000000
 -0.222222  0.454545  0.294118      4.000000
 -0.111111  0.454545  0.294118      4.000000
  0.000000  0.000000  0.352941      2.000000
  0.111111  0.000000  0.352941      4.000000
  0.222222  0.000000  0.352941      4.000000
  0.333333  0.000000  0.352941      4.000000
  0.444444  0.000000  0.352941      4.000000
  0.000000  0.090909  0.352941      4.000000
  0.111111  0.090909  0.352941      4.000000
  0.222222  0.090909  0.352941      4.000000
  0.333333  0.090909  0.352941      4.000000
  0.444444  0.090909  0.352941      4.000000
 -0.444444  0.090909  0.352941      4.000000
 -0.333333  0.090909  0.352941      4.000000
 -0.222222  0.090909  0.352941      4.000000
 -0.111111  0.090909  0.352941      4.000000
  0.000000  0.181818  0.352941      4.000000
  0.111111  0.181818  0.352941      4.000000
  0.222222  0.181818  0.352941      4.000000
  0.333333  0.181818  0.352941      4.000000
  0.444444  0.181818  0.352941      4.000000
 -0.444444  0.181818  0.352941      4.000000
 -0.333333  0.181818  0.352941      4.000000
 -0.222222  0.181818  0.352941      4.000000
 -0.111111  0.181818  0.352941      4.000000
  0.000000  0.272727  0.352941      4.000000
  0.111111  0.272727  0.352941      4.000000
  0.222222  0.272727  0.352941      4.000000
  0.333333  0.272727  0.352941      4.000000
  0.444444  0.272727  0.352941      4.000000
 -0.444444  0.272727  0.352941      4.000000
 -0.333333  0.272727  0.352941      4.000000
 -0.222222  0.272727  0.352941      4.000000
 -0.111111  0.272727  0.352941      4.000000
  0.000000  0.363636  0.352941      4.000000
  0.111111  0.363636  0.352941      4.000000
  0.222222  0.363636  0.352941      4.000000
  0.333333  0.363636  0.352941      4.000000
  0.444444  0.363636  0.352941      4.000000
 -0.444444  0.363636  0.352941      4.000000
 -0.333333  0.363636  0.352941      4.000000
 -0.222222  0.363636  0.352941      4.000000
 -0.111111  0.363636  0.352941      4.000000
  0.000000  0.454545  0.352941      4.000000
  0.111111  0.454545  0.352941      4.000000
  0.222222  0.454545  0.352941      4.000000
  0.333333  0.454545  0.352941      4.000000
  0.444444  0.454545  0.352941      4.000000
 -0.444444  0.454545  0.352941      4.000000
 -0.333333  0.454545  0.352941      4.000000
 -0.222222  0.454545  0.352941      4.000000
 -0.111111  0.454545  0.352941      4.000000
  0.000000  0.000000  0.411765      2.000000
  0.111111  0.000000  0.411765      4.000000
  0.222222  0.000000  0.411765      4.000000
  0.333333  0.000000  0.411765      4.000000
  0.444444  0.000000  0.411765      4.000000
  0.000000  0.090909  0.411765      4.000000
  0.111111  0.090909  0.411765      4.000000
  0.222222  0.090909  0.411765      4.000000
  0.333333  0.090909  0.411765      4.000000
  0.444444  0.090909  0.411765      4.000000
 -0.444444  0.090909  0.411765      4.000000
 -0.333333  0.090909  0.411765      4.000000
 -0.222222  0.090909  0.411765      4.000000
 -0.111111  0.090909  0.411765      4.000000
  0.000000  0.181818  0.411765      4.000000
  0.111111  0.181818  0.411765      4.000000
  0.222222  0.181818  0.411765      4.000000
  0.333333  0.181818  0.411765      4.000000
  0.444444  0.181818  0.411765      4.000000
 -0.444444  0.181818  0.411765      4.000000
 -0.333333  0.181818  0.411765      4.000000
 -0.222222  0.181818  0.411765      4.000000
 -0.111111  0.181818  0.411765      4.000000
  0.000000  0.272727  0.411765      4.000000
  0.111111  0.272727  0.411765      4.000000
  0.222222  0.272727  0.411765      4.000000
  0.333333  0.272727  0.411765      4.000000
  0.444444  0.272727  0.411765      4.000000
 -0.444444  0.272727  0.411765      4.000000
 -0.333333  0.272727  0.411765      4.000000
 -0.222222  0.272727  0.411765      4.000000
 -0.111111  0.272727  0.411765      4.000000
  0.000000  0.363636  0.411765      4.000000
  0.111111  0.363636  0.411765      4.000000
  0.222222  0.363636  0.411765      4.000000
  0.333333  0.363636  0.411765      4.000000
  0.444444  0.363636  0.411765      4.000000
 -0.444444  0.363636  0.411765      4.000000
 -0.333333  0.363636  0.411765      4.000000
 -0.222222  0.363636  0.411765      4.000000
 -0.111111  0.363636  0.411765      4.000000
  0.000000  0.454545  0.411765      4.000000
  0.111111  0.454545  0.411765      4.000000
  0.222222  0.454545  0.411765      4.000000
  0.333333  0.454545  0.411765      4.000000
  0.444444  0.454545  0.411765      4.000000
 -0.444444  0.454545  0.411765      4.000000
 -0.333333  0.454545  0.411765      4.000000
 -0.222222  0.454545  0.411765      4.000000
 -0.111111  0.454545  0.411765      4.000000
  0.000000  0.000000  0.470588      2.000000
  0.111111  0.000000  0.470588      4.000000
  0.222222  0.000000  0.470588      4.000000
  0.333333  0.000000  0.470588      4.000000
  0.444444  0.000000  0.470588      4.000000
  0.000000  0.090909  0.470588      4.000000
  0.111111  0.090909  0.470588      4.000000
  0.222222  0.090909  0.470588      4.000000
  0.333333  0.090909  0.470588      4.000000
  0.444444  0.090909  0.470588      4.000000
 -0.444444  0.090909  0.470588      4.000000
 -0.333333  0.090909  0.470588      4.000000
 -0.222222  0.090909  0.470588      4.000000
 -0.111111  0.090909  0.470588      4.000000
  0.000000  0.181818  0.470588      4.000000
  0.111111  0.181818  0.470588      4.000000
  0.222222  0.181818  0.470588      4.000000
  0.333333  0.181818  0.470588      4.000000
  0.444444  0.181818  0.470588      4.000000
 -0.444444  0.181818  0.470588      4.000000
 -0.333333  0.181818  0.470588      4.000000
 -0.222222  0.181818  0.470588      4.000000
 -0.111111  0.181818  0.470588      4.000000
  0.000000  0.272727  0.470588      4.000000
  0.111111  0.272727  0.470588      4.000000
  0.222222  0.272727  0.470588      4.000000
  0.333333  0.272727  0.470588      4.000000
  0.444444  0.272727  0.470588      4.000000
 -0.444444  0.272727  0.470588      4.000000
 -0.333333  0.272727  0.470588      4.000000
 -0.222222  0.272727  0.470588      4.000000
 -0.111111  0.272727  0.470588      4.000000
  0.000000  0.363636  0.470588      4.000000
  0.111111  0.363636  0.470588      4.000000
  0.222222  0.363636  0.470588      4.000000
  0.333333  0.363636  0.470588      4.000000
  0.444444  0.363636  0.470588      4.000000
 -0.444444  0.363636  0.470588      4.000000
 -0.333333  0.363636  0.470588      4.000000
 -0.222222  0.363636  0.470588      4.000000
 -0.111111  0.363636  0.470588      4.000000
  0.000000  0.454545  0.470588      4.000000
  0.111111  0.454545  0.470588      4.000000
  0.222222  0.454545  0.470588      4.000000
  0.333333  0.454545  0.470588      4.000000
  0.444444  0.454545  0.470588      4.000000
 -0.444444  0.454545  0.470588      4.000000
 -0.333333  0.454545  0.470588      4.000000
 -0.222222  0.454545  0.470588      4.000000
 -0.111111  0.454545  0.470588      4.000000
 
 Following cartesian coordinates:
            Coordinates               Weight
  0.000000 -0.000000  0.000000      1.000000
  0.012643  0.012643 -0.012399      2.000000
  0.025285  0.025285 -0.024797      2.000000
  0.037928  0.037928 -0.037196      2.000000
  0.050571  0.050571 -0.049594      2.000000
 -0.000025 -0.000025  0.020239      2.000000
  0.012617  0.012617  0.007840      2.000000
  0.025260  0.025260 -0.004559      2.000000
  0.037903  0.037903 -0.016957      2.000000
  0.050546  0.050546 -0.029356      2.000000
 -0.050596 -0.050596  0.069833      2.000000
 -0.037954 -0.037954  0.057434      2.000000
 -0.025311 -0.025311  0.045036      2.000000
 -0.012668 -0.012668  0.032637      2.000000
 -0.000051 -0.000051  0.040477      2.000000
  0.012592  0.012592  0.028079      2.000000
  0.025235  0.025235  0.015680      2.000000
  0.037877  0.037877  0.003281      2.000000
  0.050520  0.050520 -0.009117      2.000000
 -0.050622 -0.050622  0.090072      2.000000
 -0.037979 -0.037979  0.077673      2.000000
 -0.025336 -0.025336  0.065274      2.000000
 -0.012693 -0.012693  0.052876      2.000000
 -0.000076 -0.000076  0.060716      2.000000
  0.012567  0.012567  0.048317      2.000000
  0.025209  0.025209  0.035919      2.000000
  0.037852  0.037852  0.023520      2.000000
  0.050495  0.050495  0.011121      2.000000
 -0.050647 -0.050647  0.110310      2.000000
 -0.038004 -0.038004  0.097912      2.000000
 -0.025361 -0.025361  0.085513      2.000000
 -0.012719 -0.012719  0.073114      2.000000
 -0.000101 -0.000101  0.080954      2.000000
  0.012541  0.012541  0.068556      2.000000
  0.025184  0.025184  0.056157      2.000000
  0.037827  0.037827  0.043759      2.000000
  0.050470  0.050470  0.031360      2.000000
 -0.050672 -0.050672  0.130549      2.000000
 -0.038030 -0.038030  0.118150      2.000000
 -0.025387 -0.025387  0.105752      2.000000
 -0.012744 -0.012744  0.093353      2.000000
 -0.000127 -0.000127  0.101193      2.000000
  0.012516  0.012516  0.088794      2.000000
  0.025159  0.025159  0.076396      2.000000
  0.037801  0.037801  0.063997      2.000000
  0.050444  0.050444  0.051599      2.000000
 -0.050698 -0.050698  0.150787      2.000000
 -0.038055 -0.038055  0.138389      2.000000
 -0.025412 -0.025412  0.125990      2.000000
 -0.012769 -0.012769  0.113592      2.000000
  0.013758 -0.013758  0.000000      2.000000
  0.026401 -0.001116 -0.012399      4.000000
  0.039044  0.011527 -0.024797      4.000000
  0.051686  0.024170 -0.037196      4.000000
  0.064329  0.036813 -0.049594      4.000000
  0.013733 -0.013784  0.020239      4.000000
  0.026376 -0.001141  0.007840      4.000000
  0.039018  0.011502 -0.004559      4.000000
  0.051661  0.024145 -0.016957      4.000000
  0.064304  0.036787 -0.029356      4.000000
 -0.036838 -0.064354  0.069833      4.000000
 -0.024195 -0.051712  0.057434      4.000000
 -0.011553 -0.039069  0.045036      4.000000
  0.001090 -0.026426  0.032637      4.000000
  0.013708 -0.013809  0.040477      4.000000
  0.026350 -0.001166  0.028079      4.000000
  0.038993  0.011477  0.015680      4.000000
  0.051636  0.024119  0.003281      4.000000
  0.064278  0.036762 -0.009117      4.000000
 -0.036863 -0.064380  0.090072      4.000000
 -0.024221 -0.051737  0.077673      4.000000
 -0.011578 -0.039094  0.065274      4.000000
  0.001065 -0.026452  0.052876      4.000000
  0.013682 -0.013834  0.060716      4.000000
  0.026325 -0.001192  0.048317      4.000000
  0.038968  0.011451  0.035919      4.000000
  0.051610  0.024094  0.023520      4.000000
  0.064253  0.036737  0.011121      4.000000
 -0.036889 -0.064405  0.110310      4.000000
 -0.024246 -0.051762  0.097912      4.000000
 -0.011603 -0.039120  0.085513      4.000000
  0.001039 -0.026477  0.073114      4.000000
  0.013657 -0.013860  0.080954      4.000000
  0.026300 -0.001217  0.068556      4.000000
  0.038942  0.011426  0.056157      4.000000
  0.051585  0.024069  0.043759      4.000000
  0.064228  0.036711  0.031360      4.000000
 -0.036914 -0.064430  0.130549      4.000000
 -0.024271 -0.051788  0.118150      4.000000
 -0.011629 -0.039145  0.105752      4.000000
  0.001014 -0.026502  0.093353      4.000000
  0.013632 -0.013885  0.101193      4.000000
  0.026274 -0.001242  0.088794      4.000000
  0.038917  0.011400  0.076396      4.000000
  0.051560  0.024043  0.063997      4.000000
  0.064202  0.036686  0.051599      4.000000
 -0.036939 -0.064456  0.150787      4.000000
 -0.024297 -0.051813  0.138389      4.000000
 -0.011654 -0.039170  0.125990      4.000000
  0.000989 -0.026528  0.113592      4.000000
  0.027516 -0.027516  0.000000      2.000000
  0.040159 -0.014874 -0.012399      4.000000
  0.052802 -0.002231 -0.024797      4.000000
  0.065445  0.010412 -0.037196      4.000000
  0.078087  0.023054 -0.049594      4.000000
  0.027491 -0.027542  0.020239      4.000000
  0.040134 -0.014899  0.007840      4.000000
  0.052777 -0.002256 -0.004559      4.000000
  0.065419  0.010386 -0.016957      4.000000
  0.078062  0.023029 -0.029356      4.000000
 -0.023080 -0.078113  0.069833      4.000000
 -0.010437 -0.065470  0.057434      4.000000
  0.002206 -0.052827  0.045036      4.000000
  0.014848 -0.040185  0.032637      4.000000
  0.027466 -0.027567  0.040477      4.000000
  0.040109 -0.014924  0.028079      4.000000
  0.052751 -0.002282  0.015680      4.000000
  0.065394  0.010361  0.003281      4.000000
  0.078037  0.023004 -0.009117      4.000000
 -0.023105 -0.078138  0.090072      4.000000
 -0.010462 -0.065495  0.077673      4.000000
  0.002180 -0.052853  0.065274      4.000000
  0.014823 -0.040210  0.052876      4.000000
  0.027440 -0.027593  0.060716      4.000000
  0.040083 -0.014950  0.048317      4.000000
  0.052726 -0.002307  0.035919      4.000000
  0.065369  0.010336  0.023520      4.000000
  0.078011  0.022978  0.011121      4.000000
 -0.023130 -0.078163  0.110310      4.000000
 -0.010488 -0.065521  0.097912      4.000000
  0.002155 -0.052878  0.085513      4.000000
  0.014798 -0.040235  0.073114      4.000000
  0.027415 -0.027618  0.080954      4.000000
  0.040058 -0.014975  0.068556      4.000000
  0.052701 -0.002332  0.056157      4.000000
  0.065343  0.010310  0.043759      4.000000
  0.077986  0.022953  0.031360      4.000000
 -0.023156 -0.078189  0.130549      4.000000
 -0.010513 -0.065546  0.118150      4.000000
  0.002130 -0.052903  0.105752      4.000000
  0.014772 -0.040261  0.093353      4.000000
  0.027390 -0.027643  0.101193      4.000000
  0.040032 -0.015000  0.088794      4.000000
  0.052675 -0.002358  0.076396      4.000000
  0.065318  0.010285  0.063997      4.000000
  0.077961  0.022928  0.051599      4.000000
 -0.023181 -0.078214  0.150787      4.000000
 -0.010538 -0.065571  0.138389      4.000000
  0.002104 -0.052929  0.125990      4.000000
  0.014747 -0.040286  0.113592      4.000000
  0.041275 -0.041275  0.000000      2.000000
  0.053917 -0.028632 -0.012399      4.000000
  0.066560 -0.015989 -0.024797      4.000000
  0.079203 -0.003347 -0.037196      4.000000
  0.091846  0.009296 -0.049594      4.000000
  0.041249 -0.041300  0.020239      4.000000
  0.053892 -0.028657  0.007840      4.000000
  0.066535 -0.016015 -0.004559      4.000000
  0.079178 -0.003372 -0.016957      4.000000
  0.091820  0.009271 -0.029356      4.000000
 -0.009322 -0.091871  0.069833      4.000000
  0.003321 -0.079228  0.057434      4.000000
  0.015964 -0.066586  0.045036      4.000000
  0.028607 -0.053943  0.032637      4.000000
  0.041224 -0.041325  0.040477      4.000000
  0.053867 -0.028683  0.028079      4.000000
  0.066509 -0.016040  0.015680      4.000000
  0.079152 -0.003397  0.003281      4.000000
  0.091795  0.009245 -0.009117      4.000000
 -0.009347 -0.091896  0.090072      4.000000
  0.003296 -0.079254  0.077673      4.000000
  0.015939 -0.066611  0.065274      4.000000
  0.028581 -0.053968  0.052876      4.000000
  0.041199 -0.041351  0.060716      4.000000
  0.053841 -0.028708  0.048317      4.000000
  0.066484 -0.016065  0.035919      4.000000
  0.079127 -0.003423  0.023520      4.000000
  0.091770  0.009220  0.011121      4.000000
 -0.009372 -0.091922  0.110310      4.000000
  0.003271 -0.079279  0.097912      4.000000
  0.015913 -0.066636  0.085513      4.000000
  0.028556 -0.053993  0.073114      4.000000
  0.041173 -0.041376  0.080954      4.000000
  0.053816 -0.028733  0.068556      4.000000
  0.066459 -0.016091  0.056157      4.000000
  0.079102 -0.003448  0.043759      4.000000
  0.091744  0.009195  0.031360      4.000000
 -0.009398 -0.091947  0.130549      4.000000
  0.003245 -0.079304  0.118150      4.000000
  0.015888 -0.066662  0.105752      4.000000
  0.028531 -0.054019  0.093353      4.000000
  0.041148 -0.041401  0.101193      4.000000
  0.053791 -0.028759  0.088794      4.000000
  0.066433 -0.016116  0.076396      4.000000
  0.079076 -0.003473  0.063997      4.000000
  0.091719  0.009169  0.051599      4.000000
 -0.009423 -0.091972  0.150787      4.000000
  0.003220 -0.079330  0.138389      4.000000
  0.015863 -0.066687  0.125990      4.000000
  0.028505 -0.054044  0.113592      4.000000
  0.055033 -0.055033  0.000000      2.000000
  0.067676 -0.042390 -0.012399      4.000000
  0.080318 -0.029748 -0.024797      4.000000
  0.092961 -0.017105 -0.037196      4.000000
  0.105604 -0.004462 -0.049594      4.000000
  0.055008 -0.055058  0.020239      4.000000
  0.067650 -0.042416  0.007840      4.000000
  0.080293 -0.029773 -0.004559      4.000000
  0.092936 -0.017130 -0.016957      4.000000
  0.105579 -0.004487 -0.029356      4.000000
  0.004437 -0.105629  0.069833      4.000000
  0.017079 -0.092986  0.057434      4.000000
  0.029722 -0.080344  0.045036      4.000000
  0.042365 -0.067701  0.032637      4.000000
  0.054982 -0.055084  0.040477      4.000000
  0.067625 -0.042441  0.028079      4.000000
  0.080268 -0.029798  0.015680      4.000000
  0.092910 -0.017155  0.003281      4.000000
  0.105553 -0.004513 -0.009117      4.000000
  0.004411 -0.105655  0.090072      4.000000
  0.017054 -0.093012  0.077673      4.000000
  0.029697 -0.080369  0.065274      4.000000
  0.042340 -0.067726  0.052876      4.000000
  0.054957 -0.055109  0.060716      4.000000
  0.067600 -0.042466  0.048317      4.000000
  0.080242 -0.029824  0.035919      4.000000
  0.092885 -0.017181  0.023520      4.000000
  0.105528 -0.004538  0.011121      4.000000
  0.004386 -0.105680  0.110310      4.000000
  0.017029 -0.093037  0.097912      4.000000
  0.029671 -0.080394  0.085513      4.000000
  0.042314 -0.067752  0.073114      4.000000
  0.054932 -0.055134  0.080954      4.000000
  0.067574 -0.042492  0.068556      4.000000
  0.080217 -0.029849  0.056157      4.000000
  0.092860 -0.017206  0.043759      4.000000
  0.105502 -0.004563  0.031360      4.000000
  0.004361 -0.105705  0.130549      4.000000
  0.017003 -0.093062  0.118150      4.000000
  0.029646 -0.080420  0.105752      4.000000
  0.042289 -0.067777  0.093353      4.000000
  0.054906 -0.055160  0.101193      4.000000
  0.067549 -0.042517  0.088794      4.000000
  0.080192 -0.029874  0.076396      4.000000
  0.092834 -0.017231  0.063997      4.000000
  0.105477 -0.004589  0.051599      4.000000
  0.004335 -0.105731  0.150787      4.000000
  0.016978 -0.093088  0.138389      4.000000
  0.029621 -0.080445  0.125990      4.000000
  0.042264 -0.067802  0.113592      4.000000
  0.068791 -0.068791  0.000000      2.000000
  0.081434 -0.056148 -0.012399      4.000000
  0.094077 -0.043506 -0.024797      4.000000
  0.106719 -0.030863 -0.037196      4.000000
  0.119362 -0.018220 -0.049594      4.000000
  0.068766 -0.068817  0.020239      4.000000
  0.081409 -0.056174  0.007840      4.000000
  0.094051 -0.043531 -0.004559      4.000000
  0.106694 -0.030888 -0.016957      4.000000
  0.119337 -0.018246 -0.029356      4.000000
  0.018195 -0.119387  0.069833      4.000000
  0.030838 -0.106745  0.057434      4.000000
  0.043480 -0.094102  0.045036      4.000000
  0.056123 -0.081459  0.032637      4.000000
  0.068741 -0.068842  0.040477      4.000000
  0.081383 -0.056199  0.028079      4.000000
  0.094026 -0.043556  0.015680      4.000000
  0.106669 -0.030914  0.003281      4.000000
  0.119311 -0.018271 -0.009117      4.000000
  0.018170 -0.119413  0.090072      4.000000
  0.030812 -0.106770  0.077673      4.000000
  0.043455 -0.094127  0.065274      4.000000
  0.056098 -0.081485  0.052876      4.000000
  0.068715 -0.068867  0.060716      4.000000
  0.081358 -0.056225  0.048317      4.000000
  0.094001 -0.043582  0.035919      4.000000
  0.106643 -0.030939  0.023520      4.000000
  0.119286 -0.018296  0.011121      4.000000
  0.018144 -0.119438  0.110310      4.000000
  0.030787 -0.106795  0.097912      4.000000
  0.043430 -0.094153  0.085513      4.000000
  0.056072 -0.081510  0.073114      4.000000
  0.068690 -0.068893  0.080954      4.000000
  0.081333 -0.056250  0.068556      4.000000
  0.093975 -0.043607  0.056157      4.000000
  0.106618 -0.030964  0.043759      4.000000
  0.119261 -0.018322  0.031360      4.000000
  0.018119 -0.119463  0.130549      4.000000
  0.030762 -0.106821  0.118150      4.000000
  0.043404 -0.094178  0.105752      4.000000
  0.056047 -0.081535  0.093353      4.000000
  0.068664 -0.068918  0.101193      4.000000
  0.081307 -0.056275  0.088794      4.000000
  0.093950 -0.043632  0.076396      4.000000
  0.106593 -0.030990  0.063997      4.000000
  0.119235 -0.018347  0.051599      4.000000
  0.018094 -0.119489  0.150787      4.000000
  0.030736 -0.106846  0.138389      4.000000
  0.043379 -0.094203  0.125990      4.000000
  0.056022 -0.081561  0.113592      4.000000
  0.082549 -0.082549  0.000000      2.000000
  0.095192 -0.069907 -0.012399      4.000000
  0.107835 -0.057264 -0.024797      4.000000
  0.120478 -0.044621 -0.037196      4.000000
  0.133120 -0.031979 -0.049594      4.000000
  0.082524 -0.082575  0.020239      4.000000
  0.095167 -0.069932  0.007840      4.000000
  0.107810 -0.057289 -0.004559      4.000000
  0.120452 -0.044647 -0.016957      4.000000
  0.133095 -0.032004 -0.029356      4.000000
  0.031953 -0.133146  0.069833      4.000000
  0.044596 -0.120503  0.057434      4.000000
  0.057239 -0.107860  0.045036      4.000000
  0.069881 -0.095218  0.032637      4.000000
  0.082499 -0.082600  0.040477      4.000000
  0.095141 -0.069957  0.028079      4.000000
  0.107784 -0.057315  0.015680      4.000000
  0.120427 -0.044672  0.003281      4.000000
  0.133070 -0.032029 -0.009117      4.000000
  0.031928 -0.133171  0.090072      4.000000
  0.044571 -0.120528  0.077673      4.000000
  0.057213 -0.107886  0.065274      4.000000
  0.069856 -0.095243  0.052876      4.000000
  0.082473 -0.082625  0.060716      4.000000
  0.095116 -0.069983  0.048317      4.000000
  0.107759 -0.057340  0.035919      4.000000
  0.120402 -0.044697  0.023520      4.000000
  0.133044 -0.032055  0.011121      4.000000
  0.031903 -0.133196  0.110310      4.000000
  0.044545 -0.120554  0.097912      4.000000
  0.057188 -0.107911  0.085513      4.000000
  0.069831 -0.095268  0.073114      4.000000
  0.082448 -0.082651  0.080954      4.000000
  0.095091 -0.070008  0.068556      4.000000
  0.107734 -0.057365  0.056157      4.000000
  0.120376 -0.044723  0.043759      4.000000
  0.133019 -0.032080  0.031360      4.000000
  0.031877 -0.133222  0.130549      4.000000
  0.044520 -0.120579  0.118150      4.000000
  0.057163 -0.107936  0.105752      4.000000
  0.069805 -0.095294  0.093353      4.000000
  0.082423 -0.082676  0.101193      4.000000
  0.095065 -0.070033  0.088794      4.000000
  0.107708 -0.057391  0.076396      4.000000
  0.120351 -0.044748  0.063997      4.000000
  0.132994 -0.032105  0.051599      4.000000
  0.031852 -0.133247  0.150787      4.000000
  0.044495 -0.120604  0.138389      4.000000
  0.057137 -0.107962  0.125990      4.000000
  0.069780 -0.095319  0.113592      4.000000
  0.096308 -0.096308  0.000000      2.000000
  0.108950 -0.083665 -0.012399      4.000000
  0.121593 -0.071022 -0.024797      4.000000
  0.134236 -0.058380 -0.037196      4.000000
  0.146879 -0.045737 -0.049594      4.000000
  0.096282 -0.096333  0.020239      4.000000
  0.108925 -0.083690  0.007840      4.000000
  0.121568 -0.071048 -0.004559      4.000000
  0.134211 -0.058405 -0.016957      4.000000
  0.146853 -0.045762 -0.029356      4.000000
  0.045711 -0.146904  0.069833      4.000000
  0.058354 -0.134261  0.057434      4.000000
  0.070997 -0.121618  0.045036      4.000000
  0.083640 -0.108976  0.032637      4.000000
  0.096257 -0.096358  0.040477      4.000000
  0.108900 -0.083716  0.028079      4.000000
  0.121542 -0.071073  0.015680      4.000000
  0.134185 -0.058430  0.003281      4.000000
  0.146828 -0.045787 -0.009117      4.000000
  0.045686 -0.146929  0.090072      4.000000
  0.058329 -0.134287  0.077673      4.000000
  0.070972 -0.121644  0.065274      4.000000
  0.083614 -0.109001  0.052876      4.000000
  0.096232 -0.096384  0.060716      4.000000
  0.108874 -0.083741  0.048317      4.000000
  0.121517 -0.071098  0.035919      4.000000
  0.134160 -0.058456  0.023520      4.000000
  0.146803 -0.045813  0.011121      4.000000
  0.045661 -0.146955  0.110310      4.000000
  0.058303 -0.134312  0.097912      4.000000
  0.070946 -0.121669  0.085513      4.000000
  0.083589 -0.109026  0.073114      4.000000
  0.096206 -0.096409  0.080954      4.000000
  0.108849 -0.083766  0.068556      4.000000
  0.121492 -0.071124  0.056157      4.000000
  0.134134 -0.058481  0.043759      4.000000
  0.146777 -0.045838  0.031360      4.000000
  0.045635 -0.146980  0.130549      4.000000
  0.058278 -0.134337  0.118150      4.000000
  0.070921 -0.121694  0.105752      4.000000
  0.083564 -0.109052  0.093353      4.000000
  0.096181 -0.096434  0.101193      4.000000
  0.108824 -0.083792  0.088794      4.000000
  0.121466 -0.071149  0.076396      4.000000
  0.134109 -0.058506  0.063997      4.000000
  0.146752 -0.045863  0.051599      4.000000
  0.045610 -0.147005  0.150787      4.000000
  0.058253 -0.134363  0.138389      4.000000
  0.070896 -0.121720  0.125990      4.000000
  0.083538 -0.109077  0.113592      4.000000
  0.110066 -0.110066  0.000000      2.000000
  0.122709 -0.097423 -0.012399      4.000000
  0.135351 -0.084780 -0.024797      4.000000
  0.147994 -0.072138 -0.037196      4.000000
  0.160637 -0.059495 -0.049594      4.000000
  0.110041 -0.110091  0.020239      4.000000
  0.122683 -0.097449  0.007840      4.000000
  0.135326 -0.084806 -0.004559      4.000000
  0.147969 -0.072163 -0.016957      4.000000
  0.160611 -0.059520 -0.029356      4.000000
  0.059470 -0.160662  0.069833      4.000000
  0.072112 -0.148019  0.057434      4.000000
  0.084755 -0.135377  0.045036      4.000000
  0.097398 -0.122734  0.032637      4.000000
  0.110015 -0.110117  0.040477      4.000000
  0.122658 -0.097474  0.028079      4.000000
  0.135301 -0.084831  0.015680      4.000000
  0.147943 -0.072188  0.003281      4.000000
  0.160586 -0.059546 -0.009117      4.000000
  0.059444 -0.160687  0.090072      4.000000
  0.072087 -0.148045  0.077673      4.000000
  0.084730 -0.135402  0.065274      4.000000
  0.097373 -0.122759  0.052876      4.000000
  0.109990 -0.110142  0.060716      4.000000
  0.122633 -0.097499  0.048317      4.000000
  0.135275 -0.084857  0.035919      4.000000
  0.147918 -0.072214  0.023520      4.000000
  0.160561 -0.059571  0.011121      4.000000
  0.059419 -0.160713  0.110310      4.000000
  0.072062 -0.148070  0.097912      4.000000
  0.084704 -0.135427  0.085513      4.000000
  0.097347 -0.122785  0.073114      4.000000
  0.109965 -0.110167  0.080954      4.000000
  0.122607 -0.097525  0.068556      4.000000
  0.135250 -0.084882  0.056157      4.000000
  0.147893 -0.072239  0.043759      4.000000
  0.160535 -0.059596  0.031360      4.000000
  0.059394 -0.160738  0.130549      4.000000
  0.072036 -0.148095  0.118150      4.000000
  0.084679 -0.135453  0.105752      4.000000
  0.097322 -0.122810  0.093353      4.000000
  0.109939 -0.110193  0.101193      4.000000
  0.122582 -0.097550  0.088794      4.000000
  0.135225 -0.084907  0.076396      4.000000
  0.147867 -0.072264  0.063997      4.000000
  0.160510 -0.059622  0.051599      4.000000
  0.059368 -0.160764  0.150787      4.000000
  0.072011 -0.148121  0.138389      4.000000
  0.084654 -0.135478  0.125990      4.000000
  0.097296 -0.122835  0.113592      4.000000
 
 TETIRR: Found   5022 inequivalent tetrahedra from    10098


--------------------------------------------------------------------------------------------------------




 Dimension of arrays:
   k-points           NKPTS =    450   k-points in BZ     NKDIM =    450   number of bands    NBANDS=     80
   number of dos      NEDOS =   5001   number of ions     NIONS =      8
   non local maximal  LDIM  =      6   non local SUM 2l+1 LMDIM =     18
   total plane-waves  NPLWV =  48384
   max r-space proj   IRMAX =      1   max aug-charges    IRDMAX=  17157
   dimension x,y,z NGX =    48 NGY =   42 NGZ =   24
   dimension x,y,z NGXF=    96 NGYF=   84 NGZF=   48
   support grid    NGXF=    96 NGYF=   84 NGZF=   48
   ions per type =               4   4
 NGX,Y,Z   is equivalent  to a cutoff of  12.82, 12.76, 13.20 a.u.
 NGXF,Y,Z  is equivalent  to a cutoff of  25.65, 25.52, 26.39 a.u.


 I would recommend the setting:
   dimension x,y,z NGX =    48 NGY =   42 NGZ =   23
 SYSTEM =  unknown system                          
 POSCAR =  Fe  O                                   

 Startparameter for this run:
   NWRITE =      2    write-flag & timer
   PREC   = accura    normal or accurate (medium, high low for compatibility)
   ISTART =      0    job   : 0-new  1-cont  2-samecut
   ICHARG =     11    charge: 1-file 2-atom 10-const
   ISPIN  =      2    spin polarized calculation?
   LNONCOLLINEAR =      F non collinear calculations
   LSORBIT =      F    spin-orbit coupling
   INIWAV =      1    electr: 0-lowe 1-rand  2-diag
   LASPH  =      F    aspherical Exc in radial PAW
   METAGGA=      F    non-selfconsistent MetaGGA calc.

 Electronic Relaxation 1
   ENCUT  =  560.0 eV  41.16 Ry    6.42 a.u.  12.01 10.56  5.83*2*pi/ulx,y,z
   ENINI  =  560.0     initial cutoff
   ENAUG  =  605.4 eV  augmentation charge cutoff
   NELM   =     60;   NELMIN=  2; NELMDL= -5     # of ELM steps 
   EDIFF  = 0.1E-05   stopping-criterion for ELM
   LREAL  =      F    real-space projection
   NLSPLINE    = F    spline interpolate recip. space projectors
   LCOMPAT=      F    compatible to vasp.4.4
   GGA_COMPAT  = T    GGA compatible to vasp.4.4-vasp.4.6
   LMAXPAW     = -100 max onsite density
   LMAXMIX     =    4 max onsite mixed and CHGCAR
   VOSKOWN=      0    Vosko Wilk Nusair interpolation
   ROPT   =    0.00000   0.00000
 Ionic relaxation
   EDIFFG = 0.1E-04   stopping-criterion for IOM
   NSW    =      0    number of steps for IOM
   NBLOCK =      1;   KBLOCK =      1    inner block; outer block 
   IBRION =     -1    ionic relax: 0-MD 1-quasi-New 2-CG
   NFREE  =      0    steps in history (QN), initial steepest desc. (CG)
   ISIF   =      2    stress and relaxation
   IWAVPR =     10    prediction:  0-non 1-charg 2-wave 3-comb
   ISYM   =      2    0-nonsym 1-usesym 2-fastsym
   LCORR  =      T    Harris-Foulkes like correction to forces

   POTIM  = 0.5000    time-step for ionic-motion
   TEIN   =    0.0    initial temperature
   TEBEG  =    0.0;   TEEND  =   0.0 temperature during run
   SMASS  =  -3.00    Nose mass-parameter (am)
   estimated Nose-frequenzy (Omega)   =  0.10E-29 period in steps =****** mass=  -0.885E-27a.u.
   SCALEE = 1.0000    scale energy and forces
   NPACO  =    256;   APACO  = 16.0  distance and # of slots for P.C.
   PSTRESS=    0.0 pullay stress

  Mass of Ions in am
   POMASS =  55.85 16.00
  Ionic Valenz
   ZVAL   =  14.00  6.00
  Atomic Wigner-Seitz radii
   RWIGS  =  -1.00 -1.00
  virtual crystal weights 
   VCA    =   1.00  1.00
   NELECT =      80.0000    total number of electrons
   NUPDOWN=      -1.0000    fix difference up-down

 DOS related values:
   EMIN   =  10.00;   EMAX   =-10.00  energy-range for DOS
   EFERMI =   0.00
   ISMEAR =    -5;   SIGMA  =   0.20  broadening in eV -4-tet -1-fermi 0-gaus

 Electronic relaxation 2 (details)
   IALGO  =     38    algorithm
   LDIAG  =      T    sub-space diagonalisation (order eigenvalues)
   LSUBROT=      F    optimize rotation matrix (better conditioning)
   TURBO    =      0    0=normal 1=particle mesh
   IRESTART =      0    0=no restart 2=restart with 2 vectors
   NREBOOT  =      0    no. of reboots
   NMIN     =      0    reboot dimension
   EREF     =   0.00    reference energy to select bands
   IMIX   =      4    mixing-type and parameters
     AMIX     =   0.40;   BMIX     =  1.00
     AMIX_MAG =   1.60;   BMIX_MAG =  1.00
     AMIN     =   0.10
     WC   =   100.;   INIMIX=   1;  MIXPRE=   1;  MAXMIX= -45

 Intra band minimization:
   WEIMIN = 0.0000     energy-eigenvalue tresh-hold
   EBREAK =  0.31E-08  absolut break condition
   DEPER  =   0.30     relativ break condition  

   TIME   =   0.40     timestep for ELM

  volume/ion in A,a.u.               =      10.56        71.28
  Fermi-wavevector in a.u.,A,eV,Ry     =   1.607532  3.037795 35.159610  2.584158
  Thomas-Fermi vector in A             =   2.703545
 
 Write flags
   LWAVE  =      F    write WAVECAR
   LCHARG =      F    write CHGCAR
   LVTOT  =      F    write LOCPOT, total local potential
   LVHAR  =      F    write LOCPOT, Hartree potential only
   LELF   =      F    write electronic localiz. function (ELF)
   LORBIT =     11    0 simple, 1 ext, 2 COOP (PROOUT)


 Dipole corrections
   LMONO  =      F    monopole corrections only (constant potential shift)
   LDIPOL =      F    correct potential (dipole corrections)
   IDIPOL =      0    1-x, 2-y, 3-z, 4-all directions 
   EPSILON=  1.0000000 bulk dielectric constant

 LDA+U is selected, type is set to LDAUTYPE =  2
   angular momentum for each species LDAUL =     2    0
   U (eV)           for each species LDAUU =   5.0  0.0
   J (eV)           for each species LDAUJ =   0.0  0.0
 Exchange correlation treatment:
   GGA     =    --    GGA type
   LEXCH   =     8    internal setting for exchange type
   VOSKOWN=      0    Vosko Wilk Nusair interpolation
   LHFCALC =     F    Hartree Fock is set to
   LHFONE  =     F    Hartree Fock one center treatment
   AEXX    =    0.0000 exact exchange contribution

 Linear response parameters
   LEPSILON=     F    determine dielectric tensor
   LRPA    =     F    only Hartree local field effects (RPA)
   LNABLA  =     F    use nabla operator in PAW spheres
   LVEL    =     F    velocity operator in full k-point grid
   LINTERFAST=   F  fast interpolation
   KINTER  =     0    interpolate to denser k-point grid
   CSHIFT  =0.1000    complex shift for real part using Kramers Kronig
   OMEGAMAX=  -1.0    maximum frequency
   DEG_THRESHOLD= 0.2000000E-02 threshold for treating states as degnerate
   RTIME   =    0.100 relaxation time in fs

 Orbital magnetization related:
   ORBITALMAG=     F  switch on orbital magnetization
   LCHIMAG   =     F  perturbation theory with respect to B field
   DQ        =  0.001000  dq finite difference perturbation B field



--------------------------------------------------------------------------------------------------------


 Static calculation
 charge density and potential remain constant during run
 spin polarized calculation
 Variant of blocked Davidson
 Davidson routine will perform the subspace rotation
 perform sub-space diagonalisation
    after iterative eigenvector-optimisation
 no mixing
 using additional bands  40
 reciprocal scheme for non local part
 use partial core corrections
 calculate Harris-corrections to forces   (improved forces if not selfconsistent)
 use gradient corrections 
 WARNING: stress and forces are not correct
  (second derivative of E(xc) not defined)
 use of overlap-Matrix (Vanderbilt PP)
 Fermi weights with tetrahedron method with Bloechl corrections


--------------------------------------------------------------------------------------------------------


  energy-cutoff  :      560.00
  volume of cell :       84.50
      direct lattice vectors                 reciprocal lattice vectors
     4.399673925  4.399673925  0.011017864     0.113784507  0.113784507 -0.111587310
     2.205273262  2.205273262  4.497391858    -0.000278753 -0.000278753  0.222624464
     2.137756237 -2.137756237  0.000000000     0.233890091 -0.233890091 -0.000000000

  length of vectors
     6.222088290  5.472932838  3.023243863     0.195820213  0.222624813  0.330770538


 
 k-points in units of 2pi/SCALE and weight: KPOINTS created by Atomic Simulation Env
   0.00000000 -0.00000000  0.00000000       0.001
   0.01264272  0.01264272 -0.01239859       0.001
   0.02528545  0.02528545 -0.02479718       0.001
   0.03792817  0.03792817 -0.03719577       0.001
   0.05057089  0.05057089 -0.04959436       0.001
  -0.00002534 -0.00002534  0.02023859       0.001
   0.01261738  0.01261738  0.00784000       0.001
   0.02526010  0.02526010 -0.00455859       0.001
   0.03790283  0.03790283 -0.01695718       0.001
   0.05054555  0.05054555 -0.02935577       0.001
  -0.05059623 -0.05059623  0.06983295       0.001
  -0.03795351 -0.03795351  0.05743436       0.001
  -0.02531079 -0.02531079  0.04503577       0.001
  -0.01266806 -0.01266806  0.03263718       0.001
  -0.00005068 -0.00005068  0.04047718       0.001
   0.01259204  0.01259204  0.02807859       0.001
   0.02523476  0.02523476  0.01568000       0.001
   0.03787749  0.03787749  0.00328141       0.001
   0.05052021  0.05052021 -0.00911718       0.001
  -0.05062157 -0.05062157  0.09007154       0.001
  -0.03797885 -0.03797885  0.07767295       0.001
  -0.02533613 -0.02533613  0.06527436       0.001
  -0.01269341 -0.01269341  0.05287577       0.001
  -0.00007602 -0.00007602  0.06071576       0.001
   0.01256670  0.01256670  0.04831717       0.001
   0.02520942  0.02520942  0.03591858       0.001
   0.03785215  0.03785215  0.02351999       0.001
   0.05049487  0.05049487  0.01112140       0.001
  -0.05064692 -0.05064692  0.11031012       0.001
  -0.03800419 -0.03800419  0.09791153       0.001
  -0.02536147 -0.02536147  0.08551294       0.001
  -0.01271875 -0.01271875  0.07311435       0.001
  -0.00010136 -0.00010136  0.08095435       0.001
   0.01254136  0.01254136  0.06855576       0.001
   0.02518408  0.02518408  0.05615717       0.001
   0.03782680  0.03782680  0.04375858       0.001
   0.05046953  0.05046953  0.03135999       0.001
  -0.05067226 -0.05067226  0.13054871       0.001
  -0.03802953 -0.03802953  0.11815012       0.001
  -0.02538681 -0.02538681  0.10575153       0.001
  -0.01274409 -0.01274409  0.09335294       0.001
  -0.00012671 -0.00012671  0.10119294       0.001
   0.01251602  0.01251602  0.08879435       0.001
   0.02515874  0.02515874  0.07639576       0.001
   0.03780146  0.03780146  0.06399717       0.001
   0.05044419  0.05044419  0.05159858       0.001
  -0.05069760 -0.05069760  0.15078730       0.001
  -0.03805487 -0.03805487  0.13838871       0.001
  -0.02541215 -0.02541215  0.12599012       0.001
  -0.01276943 -0.01276943  0.11359153       0.001
   0.01375824 -0.01375824  0.00000000       0.001
   0.02640096 -0.00111552 -0.01239859       0.002
   0.03904369  0.01152721 -0.02479718       0.002
   0.05168641  0.02416993 -0.03719577       0.002
   0.06432913  0.03681265 -0.04959436       0.002
   0.01373290 -0.01378358  0.02023859       0.002
   0.02637562 -0.00114086  0.00784000       0.002
   0.03901835  0.01150186 -0.00455859       0.002
   0.05166107  0.02414459 -0.01695718       0.002
   0.06430379  0.03678731 -0.02935577       0.002
  -0.03683799 -0.06435447  0.06983295       0.002
  -0.02419527 -0.05171175  0.05743436       0.002
  -0.01155255 -0.03906903  0.04503577       0.002
   0.00109018 -0.02642630  0.03263718       0.002
   0.01370756 -0.01380892  0.04047718       0.002
   0.02635028 -0.00116620  0.02807859       0.002
   0.03899300  0.01147652  0.01568000       0.002
   0.05163573  0.02411925  0.00328141       0.002
   0.06427845  0.03676197 -0.00911718       0.002
  -0.03686333 -0.06437981  0.09007154       0.002
  -0.02422061 -0.05173709  0.07767295       0.002
  -0.01157789 -0.03909437  0.06527436       0.002
   0.00106484 -0.02645165  0.05287577       0.002
   0.01368222 -0.01383426  0.06071576       0.002
   0.02632494 -0.00119154  0.04831717       0.002
   0.03896766  0.01145118  0.03591858       0.002
   0.05161039  0.02409390  0.02351999       0.002
   0.06425311  0.03673663  0.01112140       0.002
  -0.03688867 -0.06440516  0.11031012       0.002
  -0.02424595 -0.05176243  0.09791153       0.002
  -0.01160323 -0.03911971  0.08551294       0.002
   0.00103949 -0.02647699  0.07311435       0.002
   0.01365688 -0.01385961  0.08095435       0.002
   0.02629960 -0.00121688  0.06855576       0.002
   0.03894232  0.01142584  0.05615717       0.002
   0.05158504  0.02406856  0.04375858       0.002
   0.06422777  0.03671129  0.03135999       0.002
  -0.03691402 -0.06443050  0.13054871       0.002
  -0.02427129 -0.05178777  0.11815012       0.002
  -0.01162857 -0.03914505  0.10575153       0.002
   0.00101415 -0.02650233  0.09335294       0.002
   0.01363153 -0.01388495  0.10119294       0.002
   0.02627426 -0.00124222  0.08879435       0.002
   0.03891698  0.01140050  0.07639576       0.002
   0.05155970  0.02404322  0.06399717       0.002
   0.06420243  0.03668595  0.05159858       0.002
  -0.03693936 -0.06445584  0.15078730       0.002
  -0.02429663 -0.05181312  0.13838871       0.002
  -0.01165391 -0.03917039  0.12599012       0.002
   0.00098881 -0.02652767  0.11359153       0.002
   0.02751648 -0.02751648  0.00000000       0.001
   0.04015920 -0.01487376 -0.01239859       0.002
   0.05280193 -0.00223104 -0.02479718       0.002
   0.06544465  0.01041169 -0.03719577       0.002
   0.07808737  0.02305441 -0.04959436       0.002
   0.02749114 -0.02754182  0.02023859       0.002
   0.04013386 -0.01489910  0.00784000       0.002
   0.05277659 -0.00225638 -0.00455859       0.002
   0.06541931  0.01038635 -0.01695718       0.002
   0.07806203  0.02302907 -0.02935577       0.002
  -0.02307975 -0.07811271  0.06983295       0.002
  -0.01043703 -0.06546999  0.05743436       0.002
   0.00220569 -0.05282727  0.04503577       0.002
   0.01484842 -0.04018455  0.03263718       0.002
   0.02746580 -0.02756716  0.04047718       0.002
   0.04010852 -0.01492444  0.02807859       0.002
   0.05275124 -0.00228172  0.01568000       0.002
   0.06539397  0.01036101  0.00328141       0.002
   0.07803669  0.02300373 -0.00911718       0.002
  -0.02310509 -0.07813806  0.09007154       0.002
  -0.01046237 -0.06549533  0.07767295       0.002
   0.00218035 -0.05285261  0.06527436       0.002
   0.01482308 -0.04020989  0.05287577       0.002
   0.02744046 -0.02759250  0.06071576       0.002
   0.04008318 -0.01494978  0.04831717       0.002
   0.05272590 -0.00230706  0.03591858       0.002
   0.06536863  0.01033566  0.02351999       0.002
   0.07801135  0.02297839  0.01112140       0.002
  -0.02313043 -0.07816340  0.11031012       0.002
  -0.01048771 -0.06552067  0.09791153       0.002
   0.00215501 -0.05287795  0.08551294       0.002
   0.01479773 -0.04023523  0.07311435       0.002
   0.02741512 -0.02761785  0.08095435       0.002
   0.04005784 -0.01497512  0.06855576       0.002
   0.05270056 -0.00233240  0.05615717       0.002
   0.06534329  0.01031032  0.04375858       0.002
   0.07798601  0.02295305  0.03135999       0.002
  -0.02315578 -0.07818874  0.13054871       0.002
  -0.01051305 -0.06554601  0.11815012       0.002
   0.00212967 -0.05290329  0.10575153       0.002
   0.01477239 -0.04026057  0.09335294       0.002
   0.02738978 -0.02764319  0.10119294       0.002
   0.04003250 -0.01500046  0.08879435       0.002
   0.05267522 -0.00235774  0.07639576       0.002
   0.06531794  0.01028498  0.06399717       0.002
   0.07796067  0.02292770  0.05159858       0.002
  -0.02318112 -0.07821408  0.15078730       0.002
  -0.01053839 -0.06557136  0.13838871       0.002
   0.00210433 -0.05292863  0.12599012       0.002
   0.01474705 -0.04028591  0.11359153       0.002
   0.04127472 -0.04127472  0.00000000       0.001
   0.05391744 -0.02863200 -0.01239859       0.002
   0.06656017 -0.01598928 -0.02479718       0.002
   0.07920289 -0.00334655 -0.03719577       0.002
   0.09184561  0.00929617 -0.04959436       0.002
   0.04124938 -0.04130006  0.02023859       0.002
   0.05389210 -0.02865734  0.00784000       0.002
   0.06653483 -0.01601462 -0.00455859       0.002
   0.07917755 -0.00337189 -0.01695718       0.002
   0.09182027  0.00927083 -0.02935577       0.002
  -0.00932151 -0.09187095  0.06983295       0.002
   0.00332121 -0.07922823  0.05743436       0.002
   0.01596393 -0.06658551  0.04503577       0.002
   0.02860666 -0.05394279  0.03263718       0.002
   0.04122404 -0.04132540  0.04047718       0.002
   0.05386676 -0.02868268  0.02807859       0.002
   0.06650949 -0.01603996  0.01568000       0.002
   0.07915221 -0.00339724  0.00328141       0.002
   0.09179493  0.00924549 -0.00911718       0.002
  -0.00934685 -0.09189630  0.09007154       0.002
   0.00329587 -0.07925357  0.07767295       0.002
   0.01593859 -0.06661085  0.06527436       0.002
   0.02858132 -0.05396813  0.05287577       0.002
   0.04119870 -0.04135075  0.06071576       0.002
   0.05384142 -0.02870802  0.04831717       0.002
   0.06648414 -0.01606530  0.03591858       0.002
   0.07912687 -0.00342258  0.02351999       0.002
   0.09176959  0.00922015  0.01112140       0.002
  -0.00937219 -0.09192164  0.11031012       0.002
   0.00327053 -0.07927891  0.09791153       0.002
   0.01591325 -0.06663619  0.08551294       0.002
   0.02855598 -0.05399347  0.07311435       0.002
   0.04117336 -0.04137609  0.08095435       0.002
   0.05381608 -0.02873336  0.06855576       0.002
   0.06645880 -0.01609064  0.05615717       0.002
   0.07910153 -0.00344792  0.04375858       0.002
   0.09174425  0.00919481  0.03135999       0.002
  -0.00939753 -0.09194698  0.13054871       0.002
   0.00324519 -0.07930426  0.11815012       0.002
   0.01588791 -0.06666153  0.10575153       0.002
   0.02853063 -0.05401881  0.09335294       0.002
   0.04114802 -0.04140143  0.10119294       0.002
   0.05379074 -0.02875870  0.08879435       0.002
   0.06643346 -0.01611598  0.07639576       0.002
   0.07907618 -0.00347326  0.06399717       0.002
   0.09171891  0.00916946  0.05159858       0.002
  -0.00942288 -0.09197232  0.15078730       0.002
   0.00321985 -0.07932960  0.13838871       0.002
   0.01586257 -0.06668687  0.12599012       0.002
   0.02850529 -0.05404415  0.11359153       0.002
   0.05503296 -0.05503296  0.00000000       0.001
   0.06767569 -0.04239024 -0.01239859       0.002
   0.08031841 -0.02974752 -0.02479718       0.002
   0.09296113 -0.01710479 -0.03719577       0.002
   0.10560385 -0.00446207 -0.04959436       0.002
   0.05500762 -0.05505830  0.02023859       0.002
   0.06765034 -0.04241558  0.00784000       0.002
   0.08029307 -0.02977286 -0.00455859       0.002
   0.09293579 -0.01713013 -0.01695718       0.002
   0.10557851 -0.00448741 -0.02935577       0.002
   0.00443673 -0.10562920  0.06983295       0.002
   0.01707945 -0.09298647  0.05743436       0.002
   0.02972218 -0.08034375  0.04503577       0.002
   0.04236490 -0.06770103  0.03263718       0.002
   0.05498228 -0.05508364  0.04047718       0.002
   0.06762500 -0.04244092  0.02807859       0.002
   0.08026773 -0.02979820  0.01568000       0.002
   0.09291045 -0.01715548  0.00328141       0.002
   0.10555317 -0.00451275 -0.00911718       0.002
   0.00441139 -0.10565454  0.09007154       0.002
   0.01705411 -0.09301181  0.07767295       0.002
   0.02969683 -0.08036909  0.06527436       0.002
   0.04233956 -0.06772637  0.05287577       0.002
   0.05495694 -0.05510899  0.06071576       0.002
   0.06759966 -0.04246626  0.04831717       0.002
   0.08024238 -0.02982354  0.03591858       0.002
   0.09288511 -0.01718082  0.02351999       0.002
   0.10552783 -0.00453809  0.01112140       0.002
   0.00438605 -0.10567988  0.11031012       0.002
   0.01702877 -0.09303715  0.09791153       0.002
   0.02967149 -0.08039443  0.08551294       0.002
   0.04231422 -0.06775171  0.07311435       0.002
   0.05493160 -0.05513433  0.08095435       0.002
   0.06757432 -0.04249160  0.06855576       0.002
   0.08021704 -0.02984888  0.05615717       0.002
   0.09285977 -0.01720616  0.04375858       0.002
   0.10550249 -0.00456344  0.03135999       0.002
   0.00436071 -0.10570522  0.13054871       0.002
   0.01700343 -0.09306250  0.11815012       0.002
   0.02964615 -0.08041977  0.10575153       0.002
   0.04228887 -0.06777705  0.09335294       0.002
   0.05490626 -0.05515967  0.10119294       0.002
   0.06754898 -0.04251695  0.08879435       0.002
   0.08019170 -0.02987422  0.07639576       0.002
   0.09283443 -0.01723150  0.06399717       0.002
   0.10547715 -0.00458878  0.05159858       0.002
   0.00433536 -0.10573056  0.15078730       0.002
   0.01697809 -0.09308784  0.13838871       0.002
   0.02962081 -0.08044511  0.12599012       0.002
   0.04226353 -0.06780239  0.11359153       0.002
   0.06879120 -0.06879120  0.00000000       0.001
   0.08143393 -0.05614848 -0.01239859       0.002
   0.09407665 -0.04350576 -0.02479718       0.002
   0.10671937 -0.03086303 -0.03719577       0.002
   0.11936209 -0.01822031 -0.04959436       0.002
   0.06876586 -0.06881654  0.02023859       0.002
   0.08140858 -0.05617382  0.00784000       0.002
   0.09405131 -0.04353110 -0.00455859       0.002
   0.10669403 -0.03088838 -0.01695718       0.002
   0.11933675 -0.01824565 -0.02935577       0.002
   0.01819497 -0.11938744  0.06983295       0.002
   0.03083769 -0.10674471  0.05743436       0.002
   0.04348042 -0.09410199  0.04503577       0.002
   0.05612314 -0.08145927  0.03263718       0.002
   0.06874052 -0.06884189  0.04047718       0.002
   0.08138324 -0.05619916  0.02807859       0.002
   0.09402597 -0.04355644  0.01568000       0.002
   0.10666869 -0.03091372  0.00328141       0.002
   0.11931141 -0.01827099 -0.00911718       0.002
   0.01816963 -0.11941278  0.09007154       0.002
   0.03081235 -0.10677005  0.07767295       0.002
   0.04345507 -0.09412733  0.06527436       0.002
   0.05609780 -0.08148461  0.05287577       0.002
   0.06871518 -0.06886723  0.06071576       0.002
   0.08135790 -0.05622450  0.04831717       0.002
   0.09400063 -0.04358178  0.03591858       0.002
   0.10664335 -0.03093906  0.02351999       0.002
   0.11928607 -0.01829633  0.01112140       0.002
   0.01814429 -0.11943812  0.11031012       0.002
   0.03078701 -0.10679540  0.09791153       0.002
   0.04342973 -0.09415267  0.08551294       0.002
   0.05607246 -0.08150995  0.07311435       0.002
   0.06868984 -0.06889257  0.08095435       0.002
   0.08133256 -0.05624984  0.06855576       0.002
   0.09397528 -0.04360712  0.05615717       0.002
   0.10661801 -0.03096440  0.04375858       0.002
   0.11926073 -0.01832168  0.03135999       0.002
   0.01811895 -0.11946346  0.13054871       0.002
   0.03076167 -0.10682074  0.11815012       0.002
   0.04340439 -0.09417801  0.10575153       0.002
   0.05604712 -0.08153529  0.09335294       0.002
   0.06866450 -0.06891791  0.10119294       0.002
   0.08130722 -0.05627519  0.08879435       0.002
   0.09394994 -0.04363246  0.07639576       0.002
   0.10659267 -0.03098974  0.06399717       0.002
   0.11923539 -0.01834702  0.05159858       0.002
   0.01809361 -0.11948880  0.15078730       0.002
   0.03073633 -0.10684608  0.13838871       0.002
   0.04337905 -0.09420336  0.12599012       0.002
   0.05602177 -0.08156063  0.11359153       0.002
   0.08254944 -0.08254944  0.00000000       0.001
   0.09519217 -0.06990672 -0.01239859       0.002
   0.10783489 -0.05726400 -0.02479718       0.002
   0.12047761 -0.04462127 -0.03719577       0.002
   0.13312034 -0.03197855 -0.04959436       0.002
   0.08252410 -0.08257478  0.02023859       0.002
   0.09516683 -0.06993206  0.00784000       0.002
   0.10780955 -0.05728934 -0.00455859       0.002
   0.12045227 -0.04464662 -0.01695718       0.002
   0.13309499 -0.03200389 -0.02935577       0.002
   0.03195321 -0.13314568  0.06983295       0.002
   0.04459593 -0.12050295  0.05743436       0.002
   0.05723866 -0.10786023  0.04503577       0.002
   0.06988138 -0.09521751  0.03263718       0.002
   0.08249876 -0.08260013  0.04047718       0.002
   0.09514148 -0.06995740  0.02807859       0.002
   0.10778421 -0.05731468  0.01568000       0.002
   0.12042693 -0.04467196  0.00328141       0.002
   0.13306965 -0.03202923 -0.00911718       0.002
   0.03192787 -0.13317102  0.09007154       0.002
   0.04457059 -0.12052830  0.07767295       0.002
   0.05721332 -0.10788557  0.06527436       0.002
   0.06985604 -0.09524285  0.05287577       0.002
   0.08247342 -0.08262547  0.06071576       0.002
   0.09511614 -0.06998274  0.04831717       0.002
   0.10775887 -0.05734002  0.03591858       0.002
   0.12040159 -0.04469730  0.02351999       0.002
   0.13304431 -0.03205458  0.01112140       0.002
   0.03190253 -0.13319636  0.11031012       0.002
   0.04454525 -0.12055364  0.09791153       0.002
   0.05718797 -0.10791091  0.08551294       0.002
   0.06983070 -0.09526819  0.07311435       0.002
   0.08244808 -0.08265081  0.08095435       0.002
   0.09509080 -0.07000809  0.06855576       0.002
   0.10773352 -0.05736536  0.05615717       0.002
   0.12037625 -0.04472264  0.04375858       0.002
   0.13301897 -0.03207992  0.03135999       0.002
   0.03187719 -0.13322170  0.13054871       0.002
   0.04451991 -0.12057898  0.11815012       0.002
   0.05716263 -0.10793625  0.10575153       0.002
   0.06980536 -0.09529353  0.09335294       0.002
   0.08242274 -0.08267615  0.10119294       0.002
   0.09506546 -0.07003343  0.08879435       0.002
   0.10770818 -0.05739070  0.07639576       0.002
   0.12035091 -0.04474798  0.06399717       0.002
   0.13299363 -0.03210526  0.05159858       0.002
   0.03185185 -0.13324704  0.15078730       0.002
[...]
     59      17.0805      0.00000
     60      17.3063      0.00000
     61      18.0777      0.00000
     62      18.1186      0.00000
     63      19.8612      0.00000
     64      19.9071      0.00000
     65      20.3030      0.00000
     66      20.4168      0.00000
     67      24.7874      0.00000
     68      25.0059      0.00000
     69      26.2066      0.00000
     70      26.3032      0.00000
     71      27.3523      0.00000
     72      27.5510      0.00000
     73      29.7951      0.00000
     74      30.0050      0.00000
     75      30.5559      0.00000
     76      30.5939      0.00000
     77      30.8794      0.00000
     78      31.0462      0.00000
     79      31.4996      0.00000
     80      31.7504      0.00000

 k-point   450 :      -0.1111    0.4545    0.4706
  band No.  band energies     occupation 
      1     -51.5047      1.00000
      2     -51.5036      1.00000
      3     -49.8546      1.00000
      4     -49.8538      1.00000
      5     -49.8304      1.00000
      6     -49.8296      1.00000
      7     -46.6266      1.00000
      8     -46.6255      1.00000
      9     -46.0779      1.00000
     10     -46.0775      1.00000
     11     -46.0579      1.00000
     12     -46.0575      1.00000
     13     -13.4605      1.00000
     14     -13.4427      1.00000
     15     -13.3955      1.00000
     16     -13.3926      1.00000
     17      -2.7728      1.00000
     18      -2.7693      1.00000
     19      -1.7471      1.00000
     20      -1.6783      1.00000
     21      -1.4945      1.00000
     22      -1.4911      1.00000
     23      -1.1976      1.00000
     24      -1.1581      1.00000
     25      -0.7156      1.00000
     26      -0.6539      1.00000
     27       0.3301      1.00000
     28       0.3786      1.00000
     29       0.8278      1.00000
     30       0.9240      1.00000
     31       0.9678      1.00000
     32       1.0109      1.00000
     33       1.4399      1.00000
     34       1.4497      1.00000
     35       2.5870      1.00000
     36       2.6041      1.00000
     37       2.7765      1.00000
     38       2.7991      1.00000
     39       3.7344      1.00000
     40       3.7432      1.00000
     41       7.7225      0.00000
     42       7.7405      0.00000
     43       8.4589      0.00000
     44       8.4615      0.00000
     45       8.8618      0.00000
     46       8.9004      0.00000
     47       9.3742      0.00000
     48       9.3929      0.00000
     49       9.8644      0.00000
     50       9.9024      0.00000
     51      11.0896      0.00000
     52      11.1375      0.00000
     53      14.2033      0.00000
     54      14.2328      0.00000
     55      14.3445      0.00000
     56      14.4089      0.00000
     57      15.8624      0.00000
     58      16.0205      0.00000
     59      17.6959      0.00000
     60      17.8011      0.00000
     61      17.8745      0.00000
     62      17.9537      0.00000
     63      19.8460      0.00000
     64      20.0581      0.00000
     65      20.1978      0.00000
     66      20.3198      0.00000
     67      24.4134      0.00000
     68      24.4622      0.00000
     69      26.9928      0.00000
     70      27.0043      0.00000
     71      27.3324      0.00000
     72      27.3760      0.00000
     73      29.1951      0.00000
     74      29.2868      0.00000
     75      30.2442      0.00000
     76      30.3247      0.00000
     77      30.8779      0.00000
     78      30.8820      0.00000
     79      32.2785      0.00000
     80      32.3985      0.00000


--------------------------------------------------------------------------------------------------------


 soft charge-density along one line, spin component 1
         0         1         2         3         4         5         6         7         8         9
 total charge-density along one line
 
 soft charge-density along one line, spin component 2
         0         1         2         3         4         5         6         7         8         9
 total charge-density along one line
 
 pseudopotential strength for first ion, spin component: 1
-55.056   0.005  -0.675  28.260  -0.004   0.501   0.000   0.000
  0.005 -54.411   0.005  -0.004  27.779  -0.004   0.000   0.000
 -0.675   0.005 -55.056   0.501  -0.004  28.260   0.000   0.000
 28.260  -0.004   0.501 -10.049   0.003  -0.342  -0.000  -0.000
 -0.004  27.779  -0.004   0.003  -9.720   0.003  -0.000  -0.000
  0.501  -0.004  28.260  -0.342   0.003 -10.049  -0.000  -0.000
  0.000   0.000   0.000  -0.000  -0.000  -0.000 -10.861   0.002
  0.000   0.000   0.000  -0.000  -0.000  -0.000   0.002 -10.291
 -0.000   0.000  -0.000   0.000  -0.000   0.000   0.286   0.000
  0.000   0.000   0.000  -0.000  -0.000  -0.000   0.002  -0.591
 -0.000  -0.000   0.000   0.000   0.000  -0.000  -0.000  -0.002
 -0.000  -0.000  -0.000   0.000   0.000   0.000   0.121  -0.000
 -0.000  -0.000  -0.000   0.000   0.000   0.000  -0.000  -0.010
  0.000  -0.000   0.000  -0.000   0.000  -0.000  -0.066  -0.000
 -0.000  -0.000  -0.000   0.000   0.000   0.000  -0.000   0.135
  0.000   0.000  -0.000  -0.000  -0.000   0.000   0.000   0.001
 -0.000  -0.000  -0.000   0.000   0.000   0.000   0.124  -0.001
  0.000   0.000   0.000  -0.000  -0.000  -0.000  -0.035   0.000
 pseudopotential strength for first ion, spin component: 2
-51.802   0.003  -0.263  25.781  -0.003   0.192   0.000   0.000
  0.003 -51.561   0.003  -0.003  25.605  -0.003  -0.000   0.000
 -0.263   0.003 -51.802   0.192  -0.003  25.781   0.000  -0.000
 25.781  -0.003   0.192  -8.291   0.002  -0.136  -0.000  -0.000
 -0.003  25.605  -0.003   0.002  -8.167   0.002   0.000  -0.000
  0.192  -0.003  25.781  -0.136   0.002  -8.291  -0.000   0.000
  0.000  -0.000   0.000  -0.000   0.000  -0.000  -3.797   0.002
  0.000   0.000  -0.000  -0.000  -0.000   0.000   0.002  -5.867
 -0.000   0.000  -0.000   0.000  -0.000   0.000   0.310   0.002
 -0.000   0.000   0.000   0.000  -0.000  -0.000   0.002   2.043
 -0.000  -0.000   0.000   0.000   0.000  -0.000  -0.000   0.010
 -0.000   0.000  -0.000   0.000  -0.000   0.000  -0.968  -0.000
 -0.000  -0.000   0.000   0.000   0.000  -0.000  -0.000  -0.759
  0.000  -0.000   0.000  -0.000   0.000  -0.000  -0.068  -0.000
  0.000  -0.000  -0.000  -0.000   0.000   0.000  -0.000  -0.204
  0.000   0.000  -0.000  -0.000  -0.000   0.000   0.000  -0.001
 -0.000  -0.000  -0.000   0.000   0.000   0.000   0.047  -0.001
  0.000   0.000   0.000  -0.000  -0.000  -0.000  -0.014   0.000
 total augmentation occupancy for first ion, spin component: 1
  2.000   0.000   0.000   0.000   0.000   0.000   0.000   0.000   0.000   0.000   0.000   0.000   0.000   0.000   0.000   0.000
  0.000   2.000   0.000   0.000   0.000   0.000   0.000   0.000   0.000   0.000   0.000   0.000   0.000   0.000   0.000   0.000
  0.000   0.000   2.000   0.000   0.000   0.000   0.000   0.000   0.000   0.000   0.000   0.000   0.000   0.000   0.000   0.000
  0.000   0.000   0.000   0.000   0.000   0.000   0.000   0.000   0.000   0.000   0.000   0.000   0.000   0.000   0.000   0.000
  0.000   0.000   0.000   0.000   0.000   0.000   0.000   0.000   0.000   0.000   0.000   0.000   0.000   0.000   0.000   0.000
  0.000   0.000   0.000   0.000   0.000   0.000   0.000   0.000   0.000   0.000   0.000   0.000   0.000   0.000   0.000   0.000
  0.000   0.000   0.000   0.000   0.000   0.000   1.400   0.000   0.000   0.000   0.000   0.000   0.000   0.000   0.000   0.000
  0.000   0.000   0.000   0.000   0.000   0.000   0.000   1.400   0.000   0.000   0.000   0.000   0.000   0.000   0.000   0.000
  0.000   0.000   0.000   0.000   0.000   0.000   0.000   0.000   1.400   0.000   0.000   0.000   0.000   0.000   0.000   0.000
  0.000   0.000   0.000   0.000   0.000   0.000   0.000   0.000   0.000   1.400   0.000   0.000   0.000   0.000   0.000   0.000
  0.000   0.000   0.000   0.000   0.000   0.000   0.000   0.000   0.000   0.000   1.400   0.000   0.000   0.000   0.000   0.000
  0.000   0.000   0.000   0.000   0.000   0.000   0.000   0.000   0.000   0.000   0.000   0.000   0.000   0.000   0.000   0.000
  0.000   0.000   0.000   0.000   0.000   0.000   0.000   0.000   0.000   0.000   0.000   0.000   0.000   0.000   0.000   0.000
  0.000   0.000   0.000   0.000   0.000   0.000   0.000   0.000   0.000   0.000   0.000   0.000   0.000   0.000   0.000   0.000
  0.000   0.000   0.000   0.000   0.000   0.000   0.000   0.000   0.000   0.000   0.000   0.000   0.000   0.000   0.000   0.000
  0.000   0.000   0.000   0.000   0.000   0.000   0.000   0.000   0.000   0.000   0.000   0.000   0.000   0.000   0.000   0.000
  0.000   0.000   0.000   0.000   0.000   0.000   0.000   0.000   0.000   0.000   0.000   0.000   0.000   0.000   0.000   0.000
  0.000   0.000   0.000   0.000   0.000   0.000   0.000   0.000   0.000   0.000   0.000   0.000   0.000   0.000   0.000   0.000
 total augmentation occupancy for first ion, spin component: 2
  0.857   0.000   0.000   0.000   0.000   0.000   0.000   0.000   0.000   0.000   0.000   0.000   0.000   0.000   0.000   0.000
  0.000   0.857   0.000   0.000   0.000   0.000   0.000   0.000   0.000   0.000   0.000   0.000   0.000   0.000   0.000   0.000
  0.000   0.000   0.857   0.000   0.000   0.000   0.000   0.000   0.000   0.000   0.000   0.000   0.000   0.000   0.000   0.000
  0.000   0.000   0.000   0.000   0.000   0.000   0.000   0.000   0.000   0.000   0.000   0.000   0.000   0.000   0.000   0.000
  0.000   0.000   0.000   0.000   0.000   0.000   0.000   0.000   0.000   0.000   0.000   0.000   0.000   0.000   0.000   0.000
  0.000   0.000   0.000   0.000   0.000   0.000   0.000   0.000   0.000   0.000   0.000   0.000   0.000   0.000   0.000   0.000
  0.000   0.000   0.000   0.000   0.000   0.000   0.600   0.000   0.000   0.000   0.000   0.000   0.000   0.000   0.000   0.000
  0.000   0.000   0.000   0.000   0.000   0.000   0.000   0.600   0.000   0.000   0.000   0.000   0.000   0.000   0.000   0.000
  0.000   0.000   0.000   0.000   0.000   0.000   0.000   0.000   0.600   0.000   0.000   0.000   0.000   0.000   0.000   0.000
  0.000   0.000   0.000   0.000   0.000   0.000   0.000   0.000   0.000   0.600   0.000   0.000   0.000   0.000   0.000   0.000
  0.000   0.000   0.000   0.000   0.000   0.000   0.000   0.000   0.000   0.000   0.600   0.000   0.000   0.000   0.000   0.000
  0.000   0.000   0.000   0.000   0.000   0.000   0.000   0.000   0.000   0.000   0.000   0.000   0.000   0.000   0.000   0.000
  0.000   0.000   0.000   0.000   0.000   0.000   0.000   0.000   0.000   0.000   0.000   0.000   0.000   0.000   0.000   0.000
  0.000   0.000   0.000   0.000   0.000   0.000   0.000   0.000   0.000   0.000   0.000   0.000   0.000   0.000   0.000   0.000
  0.000   0.000   0.000   0.000   0.000   0.000   0.000   0.000   0.000   0.000   0.000   0.000   0.000   0.000   0.000   0.000
  0.000   0.000   0.000   0.000   0.000   0.000   0.000   0.000   0.000   0.000   0.000   0.000   0.000   0.000   0.000   0.000
  0.000   0.000   0.000   0.000   0.000   0.000   0.000   0.000   0.000   0.000   0.000   0.000   0.000   0.000   0.000   0.000
  0.000   0.000   0.000   0.000   0.000   0.000   0.000   0.000   0.000   0.000   0.000   0.000   0.000   0.000   0.000   0.000


------------------------ aborting loop because EDIFF is reached ----------------------------------------


 


 total charge     
 
# of ion     s       p       d       tot
----------------------------------------
  1        0.217   6.221   5.975  12.413
  2        0.217   6.221   5.975  12.413
  3        0.217   6.221   5.975  12.413
  4        0.217   6.221   5.975  12.413
  5        1.550   3.451   0.000   5.002
  6        1.550   3.451   0.000   5.002
  7        1.550   3.451   0.000   5.002
  8        1.550   3.451   0.000   5.002
------------------------------------------------
tot        7.070  38.689  23.901  69.660
 


 magnetization (x)
 
# of ion     s       p       d       tot
----------------------------------------
  1        0.020   0.013   3.680   3.713
  2        0.020   0.013   3.680   3.713
  3       -0.020  -0.013  -3.680  -3.713
  4       -0.020  -0.013  -3.680  -3.713
  5       -0.000   0.000   0.000   0.000
  6        0.000  -0.000   0.000  -0.000
  7       -0.000   0.000   0.000   0.000
  8        0.000   0.000   0.000   0.000
------------------------------------------------
tot        0.000   0.000  -0.000   0.000
 
    CHARGE:  cpu time    1.14: real time    1.14
    FORLOC:  cpu time    0.00: real time    0.00
    FORNL :  cpu time    1.83: real time    1.83
    STRESS:  cpu time    3.56: real time    3.57
    FORCOR:  cpu time    0.03: real time    0.03
    FORHAR:  cpu time    0.00: real time    0.00
    OFIELD:  cpu time    0.00: real time    0.00

  FORCE on cell =-STRESS in cart. coord.  units (eV):
  Direction    XX          YY          ZZ          XY          YZ          ZX
  --------------------------------------------------------------------------------------
  Alpha Z   619.07659   619.07659   619.07659
  Ewald   -2650.51804 -2650.51804 -2879.04284     8.13735     0.80637     0.80637
  Hartree   992.71689   992.71689   898.82863   -23.20277     0.66872     0.66872
  E(xc)    -483.26165  -483.26165  -483.71937     0.32720     0.00775     0.00775
  Local     537.70537   537.70537   822.22092    48.00666    -1.71560    -1.71560
  n-local  -385.81543  -386.84458  -401.46984    13.89988    -0.20687     0.03248
  augment   295.45667   295.45667   317.75085   -22.97552     0.18532     0.18536
  Kinetic  1073.77536  1076.57480  1106.35610   -24.19746     1.20957    -0.98575
  Fock        0.00000     0.00000     0.00000     0.00000     0.00000     0.00000
  -------------------------------------------------------------------------------------
  Total       0.02090     0.02090     0.00103    -0.00382    -0.00245    -0.00245
  in kB       0.39622     0.39622     0.01945    -0.07244    -0.04654    -0.04654
  external pressure =        0.27 kB  Pullay stress =        0.00 kB


 VOLUME and BASIS-vectors are now :
 -----------------------------------------------------------------------------
  energy-cutoff  :      560.00
  volume of cell :       84.50
      direct lattice vectors                 reciprocal lattice vectors
     4.399673925  4.399673925  0.011017864     0.113784507  0.113784507 -0.111587310
     2.205273262  2.205273262  4.497391858    -0.000278753 -0.000278753  0.222624464
     2.137756237 -2.137756237  0.000000000     0.233890091 -0.233890091 -0.000000000

  length of vectors
     6.222088290  5.472932838  3.023243863     0.195820213  0.222624813  0.330770538


 FORCES acting on ions
    electron-ion (+dipol)            ewald-force                    non-local-force                 convergence-correction
 -----------------------------------------------------------------------------------------------
   -.108E-01 -.108E-01 -.109E-02   0.535E-02 0.535E-02 -.280E-02   -.903E-02 -.903E-02 -.677E-02   0.145E-01 0.145E-01 0.108E-01
   0.738E-02 0.738E-02 -.324E-02   -.146E-02 -.146E-02 0.722E-02   0.628E-02 0.628E-02 0.303E-02   -.123E-01 -.123E-01 -.708E-02
   0.189E-03 0.189E-03 -.111E-01   -.887E-02 -.887E-02 0.303E-02   -.107E-01 -.107E-01 -.948E-02   0.193E-01 0.193E-01 0.179E-01
   -.576E-02 -.576E-02 0.542E-02   0.425E-02 0.425E-02 -.729E-02   -.166E-02 -.166E-02 -.357E-02   0.332E-02 0.332E-02 0.551E-02
   -.380E-01 -.380E-01 0.234E-01   0.396E-01 0.396E-01 -.194E-01   0.314E-02 0.314E-02 -.609E-03   -.334E-02 -.334E-02 -.383E-02
   0.398E-01 0.398E-01 -.544E-01   -.379E-01 -.379E-01 0.559E-01   -.440E-03 -.440E-03 0.210E-02   -.244E-02 -.244E-02 -.221E-02
   0.416E-01 0.416E-01 -.205E-01   -.435E-01 -.435E-01 0.193E-01   -.254E-02 -.254E-02 0.171E-02   0.307E-02 0.307E-02 0.156E-03
   -.404E-01 -.404E-01 0.554E-01   0.425E-01 0.425E-01 -.560E-01   0.133E-02 0.133E-02 -.166E-02   -.223E-02 -.223E-02 0.774E-03
 -----------------------------------------------------------------------------------------------
   -.596E-02 -.596E-02 -.598E-02   0.327E-14 -.165E-13 -.134E-13   -.136E-01 -.136E-01 -.152E-01   0.199E-01 0.199E-01 0.220E-01
 
 
 POSITION                                       TOTAL-FORCE (eV/Angst)
 -----------------------------------------------------------------------------------
      0.00007      0.00007      0.00000        -0.000023     -0.000023      0.000071
      4.37139      2.23364      2.25420        -0.000114     -0.000114     -0.000178
      4.40519      4.40519      4.50290        -0.000099     -0.000099      0.000299
      2.17155      0.03380      2.24870         0.000098      0.000098     -0.000023
      2.20253      2.20253      2.25147         0.001354      0.001354     -0.000479
      6.57406      4.43630      4.50550        -0.001004     -0.001004      0.001315
      4.40249      4.40249      2.25694        -0.001390     -0.001390      0.000511
      2.16878      0.03103      0.00291         0.001178      0.001178     -0.001515
 -----------------------------------------------------------------------------------
    total drift:                                0.000308      0.000308      0.000832


--------------------------------------------------------------------------------------------------------



  FREE ENERGIE OF THE ION-ELECTRON SYSTEM (eV)
  ---------------------------------------------------
  free  energy   TOTEN  =       -53.54686815 eV

  energy  without entropy=      -53.54686815  energy(sigma->0) =      -53.54686815
 


--------------------------------------------------------------------------------------------------------


    POTLOK:  cpu time    0.04: real time    0.04


--------------------------------------------------------------------------------------------------------


     LOOP+:  cpu time  225.01: real time  231.63
    4ORBIT:  cpu time    0.00: real time    0.00
 


 total charge     
 
# of ion     s       p       d       tot
----------------------------------------
  1        0.217   6.221   5.975  12.413
  2        0.217   6.221   5.975  12.413
  3        0.217   6.221   5.975  12.413
  4        0.217   6.221   5.975  12.413
  5        1.550   3.451   0.000   5.002
  6        1.550   3.451   0.000   5.002
  7        1.550   3.451   0.000   5.002
  8        1.550   3.451   0.000   5.002
------------------------------------------------
tot        7.070  38.689  23.901  69.660
 


 magnetization (x)
 
# of ion     s       p       d       tot
----------------------------------------
  1        0.020   0.013   3.680   3.713
  2        0.020   0.013   3.680   3.713
  3       -0.020  -0.013  -3.680  -3.713
  4       -0.020  -0.013  -3.680  -3.713
  5       -0.000   0.000   0.000   0.000
  6        0.000  -0.000   0.000  -0.000
  7       -0.000   0.000   0.000   0.000
  8        0.000   0.000   0.000   0.000
------------------------------------------------
tot        0.000   0.000  -0.000   0.000
 
 BZINTS: Fermi energy:  4.030957; 80.000000 electrons
         Band energy:***********;  BLOECHL correction:  0.000000

 total amount of memory used by VASP on root node   200293. kBytes
========================================================================

   base      :      30000. kBytes
   nonl-proj :      14918. kBytes
   fftplans  :        625. kBytes
   grid      :       1503. kBytes
   one-center:         31. kBytes
   wavefun   :     153216. kBytes
 
  
  
 General timing and accounting informations for this job:
 ========================================================
  
                  Total CPU time used (sec):      254.948
                            User time (sec):      254.228
                          System time (sec):        0.720
                         Elapsed time (sec):      261.628
  
                   Maximum memory used (kb):      267448.
                   Average memory used (kb):           0.
  
                          Minor page faults:        77367
                          Major page faults:           86
                 Voluntary context switches:         2857
